
     Program PWSCF v.6.7MaX starts on 30Apr2026 at 15:18:52 

     This program is part of the open-source Quantum ESPRESSO suite
     for quantum simulation of materials; please cite
         "P. Giannozzi et al., J. Phys.:Condens. Matter 21 395502 (2009);
         "P. Giannozzi et al., J. Phys.:Condens. Matter 29 465901 (2017);
          URL http://www.quantum-espresso.org", 
     in publications or presentations arising from this work. More details at
     http://www.quantum-espresso.org/quote

     Parallel version (MPI & OpenMP), running on       4 processor cores
     Number of MPI processes:                 4
     Threads/MPI process:                     1

     MPI processes distributed on     1 nodes
     R & G space division:  proc/nbgrp/npool/nimage =       4
     Waiting for input...
     Reading input from standard input

     Current dimensions of program PWSCF are:
     Max number of different atomic species (ntypx) = 10
     Max number of k-points (npk) =  40000
     Max angular momentum in pseudopotentials (lmaxx) =  3

     Subspace diagonalization in iterative solution of the eigenvalue problem:
     a serial algorithm will be used


     Parallelization info
     --------------------
     sticks:   dense  smooth     PW     G-vecs:    dense   smooth      PW
     Min         595     238     66                87326    22098    3372
     Max         596     239     67                87334    22107    3385
     Sum        2383     955    265               349319    88417   13515



     bravais-lattice index     =            4
     lattice parameter (alat)  =       7.5695  a.u.
     unit-cell volume          =    1406.5349 (a.u.)^3
     number of atoms/cell      =            2
     number of atomic types    =            1
     number of electrons       =        30.00
     number of Kohn-Sham states=           20
     kinetic-energy cutoff     =      60.0000  Ry
     charge density cutoff     =     600.0000  Ry
     scf convergence threshold =      1.0E-06
     mixing beta               =       0.7000
     number of iterations used =            8  plain     mixing
     energy convergence thresh.=      1.0E-04
     force convergence thresh. =      1.0E-03
     press convergence thresh. =      1.0E-03
     Exchange-correlation=  SLA  PZ   NOGX NOGC
                           (   1   1   0   0   0   0   0)
     nstep                     =           50


     celldm(1)=   7.569460  celldm(2)=   0.000000  celldm(3)=   3.744771
     celldm(4)=   0.000000  celldm(5)=   0.000000  celldm(6)=   0.000000

     crystal axes: (cart. coord. in units of alat)
               a(1) = (   1.000000   0.000000   0.000000 )  
               a(2) = (  -0.500000   0.866025   0.000000 )  
               a(3) = (   0.000000   0.000000   3.744771 )  

     reciprocal axes: (cart. coord. in units 2 pi/alat)
               b(1) = (  1.000000  0.577350 -0.000000 )  
               b(2) = (  0.000000  1.154701  0.000000 )  
               b(3) = (  0.000000 -0.000000  0.267039 )  


     PseudoPot. # 1 for Sb read from file:
     /Users/cdhogan/Research/Codes/espresso/PSEUDO/GBRV-LDA-1.5/sb_lda_v1.4.uspp.F.UPF
     MD5 check sum: 3d1f43858b4404e985453f13816be267
     Pseudo is Ultrasoft + core correction, Zval = 15.0
     Generated by new atomic code, or converted to UPF format
     Using radial grid of  891 points,  6 beta functions with: 
                l(1) =   0
                l(2) =   0
                l(3) =   1
                l(4) =   1
                l(5) =   2
                l(6) =   2
     Q(r) pseudized with  8 coefficients,  rinner =    1.350   1.350   1.350
                                                       1.350   1.350

     atomic species   valence    mass     pseudopotential
        Sb            15.00    12.01100     Sb( 1.00)

      6 Sym. Ops. (no inversion) found


                                    s                        frac. trans.

      isym =  1     identity                                     

 cryst.   s( 1) = (     1          0          0      )
                  (     0          1          0      )
                  (     0          0          1      )

 cart.    s( 1) = (  1.0000000  0.0000000  0.0000000 )
                  (  0.0000000  1.0000000  0.0000000 )
                  (  0.0000000  0.0000000  1.0000000 )


      isym =  2     120 deg rotation - cryst. axis [0,0,1]       

 cryst.   s( 2) = (     0          1          0      )
                  (    -1         -1          0      )
                  (     0          0          1      )

 cart.    s( 2) = ( -0.5000000 -0.8660254  0.0000000 )
                  (  0.8660254 -0.5000000  0.0000000 )
                  (  0.0000000  0.0000000  1.0000000 )


      isym =  3     120 deg rotation - cryst. axis [0,0,-1]      

 cryst.   s( 3) = (    -1         -1          0      )
                  (     1          0          0      )
                  (     0          0          1      )

 cart.    s( 3) = ( -0.5000000  0.8660254  0.0000000 )
                  ( -0.8660254 -0.5000000  0.0000000 )
                  (  0.0000000  0.0000000  1.0000000 )


      isym =  4     inv. 180 deg rotation - cart. axis [1,0,0]   

 cryst.   s( 4) = (    -1          0          0      )
                  (     1          1          0      )
                  (     0          0          1      )

 cart.    s( 4) = ( -1.0000000  0.0000000  0.0000000 )
                  (  0.0000000  1.0000000  0.0000000 )
                  (  0.0000000  0.0000000  1.0000000 )


      isym =  5     inv. 180 deg rotation - cryst. axis [0,1,0]  

 cryst.   s( 5) = (     1          1          0      )
                  (     0         -1          0      )
                  (     0          0          1      )

 cart.    s( 5) = (  0.5000000  0.8660254  0.0000000 )
                  (  0.8660254 -0.5000000  0.0000000 )
                  (  0.0000000  0.0000000  1.0000000 )


      isym =  6     inv. 180 deg rotation - cryst. axis [1,1,0]  

 cryst.   s( 6) = (     0         -1          0      )
                  (    -1          0          0      )
                  (     0          0          1      )

 cart.    s( 6) = (  0.5000000 -0.8660254  0.0000000 )
                  ( -0.8660254 -0.5000000  0.0000000 )
                  (  0.0000000  0.0000000  1.0000000 )


     point group C_3v (3m)  
     there are  3 classes
     the character table:

       E     2C3   3s_v 
A_1    1.00  1.00  1.00
A_2    1.00  1.00 -1.00
E      2.00 -1.00  0.00

     the symmetry operations in each class and the name of the first element:

     E        1
          identity                                               
     2C3      2    3
          120 deg rotation - cryst. axis [0,0,1]                 
     3s_v     4    5    6
          inv. 180 deg rotation - cart. axis [1,0,0]             

   Cartesian axes

     site n.     atom                  positions (alat units)
         1           Sb  tau(   1) = (   0.0000000   0.0000000   1.8723854  )
         2           Sb  tau(   2) = (  -0.0000000   0.5773503   2.2787829  )

   Crystallographic axes

     site n.     atom                  positions (cryst. coord.)
         1           Sb  tau(   1) = (  0.0000000  0.0000000  0.5000000  )
         2           Sb  tau(   2) = (  0.3333333  0.6666667  0.6085240  )

     number of k points=    27
                       cart. coord. in units 2pi/alat
        k(    1) = (   0.0000000   0.0000000   0.0000000), wk =   0.0088889
        k(    2) = (   0.0000000   0.0769800   0.0000000), wk =   0.0533333
        k(    3) = (   0.0000000   0.1539601   0.0000000), wk =   0.0533333
        k(    4) = (   0.0000000   0.2309401   0.0000000), wk =   0.0533333
        k(    5) = (   0.0000000   0.3079201   0.0000000), wk =   0.0533333
        k(    6) = (   0.0000000   0.3849002   0.0000000), wk =   0.0533333
        k(    7) = (   0.0000000   0.4618802   0.0000000), wk =   0.0533333
        k(    8) = (   0.0000000   0.5388603   0.0000000), wk =   0.0533333
        k(    9) = (   0.0666667   0.1154701   0.0000000), wk =   0.0533333
        k(   10) = (   0.0666667   0.1924501   0.0000000), wk =   0.1066667
        k(   11) = (   0.0666667   0.2694301   0.0000000), wk =   0.1066667
        k(   12) = (   0.0666667   0.3464102   0.0000000), wk =   0.1066667
        k(   13) = (   0.0666667   0.4233902   0.0000000), wk =   0.1066667
        k(   14) = (   0.0666667   0.5003702   0.0000000), wk =   0.1066667
        k(   15) = (   0.0666667   0.5773503   0.0000000), wk =   0.0533333
        k(   16) = (   0.1333333   0.2309401   0.0000000), wk =   0.0533333
        k(   17) = (   0.1333333   0.3079201   0.0000000), wk =   0.1066667
        k(   18) = (   0.1333333   0.3849002   0.0000000), wk =   0.1066667
        k(   19) = (   0.1333333   0.4618802   0.0000000), wk =   0.1066667
        k(   20) = (   0.1333333   0.5388603   0.0000000), wk =   0.1066667
        k(   21) = (   0.2000000   0.3464102   0.0000000), wk =   0.0533333
        k(   22) = (   0.2000000   0.4233902   0.0000000), wk =   0.1066667
        k(   23) = (   0.2000000   0.5003702   0.0000000), wk =   0.1066667
        k(   24) = (   0.2000000   0.5773503   0.0000000), wk =   0.0533333
        k(   25) = (   0.2666667   0.4618802   0.0000000), wk =   0.0533333
        k(   26) = (   0.2666667   0.5388603   0.0000000), wk =   0.1066667
        k(   27) = (   0.3333333   0.5773503   0.0000000), wk =   0.0177778

                       cryst. coord.
        k(    1) = (   0.0000000   0.0000000   0.0000000), wk =   0.0088889
        k(    2) = (   0.0000000   0.0666667   0.0000000), wk =   0.0533333
        k(    3) = (   0.0000000   0.1333333   0.0000000), wk =   0.0533333
        k(    4) = (   0.0000000   0.2000000   0.0000000), wk =   0.0533333
        k(    5) = (   0.0000000   0.2666667   0.0000000), wk =   0.0533333
        k(    6) = (   0.0000000   0.3333333   0.0000000), wk =   0.0533333
        k(    7) = (   0.0000000   0.4000000   0.0000000), wk =   0.0533333
        k(    8) = (   0.0000000   0.4666667   0.0000000), wk =   0.0533333
        k(    9) = (   0.0666667   0.0666667   0.0000000), wk =   0.0533333
        k(   10) = (   0.0666667   0.1333333   0.0000000), wk =   0.1066667
        k(   11) = (   0.0666667   0.2000000   0.0000000), wk =   0.1066667
        k(   12) = (   0.0666667   0.2666667   0.0000000), wk =   0.1066667
        k(   13) = (   0.0666667   0.3333333   0.0000000), wk =   0.1066667
        k(   14) = (   0.0666667   0.4000000   0.0000000), wk =   0.1066667
        k(   15) = (   0.0666667   0.4666667   0.0000000), wk =   0.0533333
        k(   16) = (   0.1333333   0.1333333   0.0000000), wk =   0.0533333
        k(   17) = (   0.1333333   0.2000000   0.0000000), wk =   0.1066667
        k(   18) = (   0.1333333   0.2666667   0.0000000), wk =   0.1066667
        k(   19) = (   0.1333333   0.3333333   0.0000000), wk =   0.1066667
        k(   20) = (   0.1333333   0.4000000   0.0000000), wk =   0.1066667
        k(   21) = (   0.2000000   0.2000000   0.0000000), wk =   0.0533333
        k(   22) = (   0.2000000   0.2666667   0.0000000), wk =   0.1066667
        k(   23) = (   0.2000000   0.3333333   0.0000000), wk =   0.1066667
        k(   24) = (   0.2000000   0.4000000   0.0000000), wk =   0.0533333
        k(   25) = (   0.2666667   0.2666667   0.0000000), wk =   0.0533333
        k(   26) = (   0.2666667   0.3333333   0.0000000), wk =   0.1066667
        k(   27) = (   0.3333333   0.3333333   0.0000000), wk =   0.0177778

     Dense  grid:   349319 G-vectors     FFT dimensions: (  60,  60, 225)

     Smooth grid:    88417 G-vectors     FFT dimensions: (  40,  40, 144)

     Dynamical RAM for                 wfc:       0.84 MB

     Dynamical RAM for     wfc (w. buffer):      23.58 MB

     Dynamical RAM for           str. fact:       1.33 MB

     Dynamical RAM for           local pot:       0.00 MB

     Dynamical RAM for          nlocal pot:       1.52 MB

     Dynamical RAM for                qrad:       3.93 MB

     Dynamical RAM for          rho,v,vnew:       8.69 MB

     Dynamical RAM for               rhoin:       2.90 MB

     Dynamical RAM for            rho*nmix:      21.32 MB

     Dynamical RAM for           G-vectors:       5.17 MB

     Dynamical RAM for          h,s,v(r/c):       0.07 MB

     Dynamical RAM for          <psi|beta>:       0.01 MB

     Dynamical RAM for                 psi:       1.68 MB

     Dynamical RAM for                hpsi:       1.68 MB

     Dynamical RAM for                spsi:       1.68 MB

     Dynamical RAM for      wfcinit/wfcrot:       1.69 MB

     Dynamical RAM for           addusdens:     250.51 MB

     Dynamical RAM for          addusforce:     253.85 MB

     Dynamical RAM for         addusstress:     267.83 MB

     Estimated static dynamical RAM per process >      78.92 MB

     Estimated max dynamical RAM per process >     346.75 MB

     Estimated total dynamical RAM >       1.35 GB

     Initial potential from superposition of free atoms

     starting charge   27.99998, renormalised to   30.00000

     negative rho (up, down):  2.057E-03 0.000E+00
     Starting wfcs are   18 randomized atomic wfcs +    2 random wfcs

     total cpu time spent up to now is        1.8 secs

     Self-consistent Calculation

     iteration #  1     ecut=    60.00 Ry     beta= 0.70
     Davidson diagonalization with overlap
     ethr =  1.00E-02,  avg # of iterations =  7.6

     negative rho (up, down):  3.814E-05 0.000E+00

     total cpu time spent up to now is        5.2 secs

     total energy              =    -368.22090601 Ry
     estimated scf accuracy    <       2.27850570 Ry

     iteration #  2     ecut=    60.00 Ry     beta= 0.70
     Davidson diagonalization with overlap
     ethr =  7.60E-03,  avg # of iterations =  2.3

     negative rho (up, down):  1.681E-06 0.000E+00

     total cpu time spent up to now is        7.7 secs

     total energy              =    -369.01428183 Ry
     estimated scf accuracy    <       0.43165997 Ry

     iteration #  3     ecut=    60.00 Ry     beta= 0.70
     Davidson diagonalization with overlap
     ethr =  1.44E-03,  avg # of iterations =  2.0

     total cpu time spent up to now is       10.2 secs

     total energy              =    -369.10209126 Ry
     estimated scf accuracy    <       0.00705928 Ry

     iteration #  4     ecut=    60.00 Ry     beta= 0.70
     Davidson diagonalization with overlap
     ethr =  2.35E-05,  avg # of iterations =  7.5

     negative rho (up, down):  2.018E-07 0.000E+00

     total cpu time spent up to now is       13.5 secs

     total energy              =    -369.10330480 Ry
     estimated scf accuracy    <       0.00039302 Ry

     iteration #  5     ecut=    60.00 Ry     beta= 0.70
     Davidson diagonalization with overlap
     ethr =  1.31E-06,  avg # of iterations =  5.1

     negative rho (up, down):  1.436E-06 0.000E+00

     total cpu time spent up to now is       16.1 secs

     total energy              =    -369.10331847 Ry
     estimated scf accuracy    <       0.00033100 Ry

     iteration #  6     ecut=    60.00 Ry     beta= 0.70
     Davidson diagonalization with overlap
     ethr =  1.10E-06,  avg # of iterations =  2.0

     negative rho (up, down):  2.533E-06 0.000E+00

     total cpu time spent up to now is       18.3 secs

     total energy              =    -369.10336410 Ry
     estimated scf accuracy    <       0.00004133 Ry

     iteration #  7     ecut=    60.00 Ry     beta= 0.70
     Davidson diagonalization with overlap
     ethr =  1.38E-07,  avg # of iterations =  2.0

     negative rho (up, down):  3.747E-06 0.000E+00

     total cpu time spent up to now is       20.5 secs

     End of self-consistent calculation

          k = 0.0000 0.0000 0.0000 ( 11085 PWs)   bands (ev):

   -29.4186 -29.4186 -29.3256 -29.3256 -29.2874 -29.1965 -29.1965 -29.1621
   -29.1051 -29.1051 -12.6571  -7.3978  -1.6861  -0.7839  -0.7839   0.8979
     2.0655   2.0655   3.6009   3.6882

     occupation numbers 
     1.0000   1.0000   1.0000   1.0000   1.0000   1.0000   1.0000   1.0000
     1.0000   1.0000   1.0000   1.0000   1.0000   1.0000   1.0000   0.0000
     0.0000   0.0000   0.0000   0.0000

          k = 0.0000 0.0770 0.0000 ( 11063 PWs)   bands (ev):

   -29.4182 -29.4159 -29.3253 -29.3238 -29.2864 -29.1977 -29.1967 -29.1628
   -29.1085 -29.1053 -12.6056  -7.3872  -1.6579  -1.3534  -0.9106   1.3114
     1.9600   2.1860   3.6764   3.7456

     occupation numbers 
     1.0000   1.0000   1.0000   1.0000   1.0000   1.0000   1.0000   1.0000
     1.0000   1.0000   1.0000   1.0000   1.0000   1.0000   1.0000   0.0000
     0.0000   0.0000   0.0000   0.0000

          k = 0.0000 0.1540 0.0000 ( 11046 PWs)   bands (ev):

   -29.4170 -29.4077 -29.3246 -29.3187 -29.2835 -29.2011 -29.1974 -29.1647
   -29.1181 -29.1058 -12.4521  -7.3695  -2.3119  -1.5852  -1.2153   1.1854
     2.3719   2.4502   3.8499   3.9385

     occupation numbers 
     1.0000   1.0000   1.0000   1.0000   1.0000   1.0000   1.0000   1.0000
     1.0000   1.0000   1.0000   1.0000   1.0000   1.0000   1.0000   0.0000
     0.0000   0.0000   0.0000   0.0000

          k = 0.0000 0.2309 0.0000 ( 11026 PWs)   bands (ev):

   -29.4152 -29.3946 -29.3239 -29.3106 -29.2782 -29.2068 -29.1990 -29.1677
   -29.1333 -29.1065 -12.1998  -7.3926  -3.2032  -1.5761  -1.5140   0.7057
     2.6905   2.7551   3.9925   4.2346

     occupation numbers 
     1.0000   1.0000   1.0000   1.0000   1.0000   1.0000   1.0000   1.0000
     1.0000   1.0000   1.0000   1.0000   1.0000   1.0000   1.0000   0.0000
     0.0000   0.0000   0.0000   0.0000

          k = 0.0000 0.3079 0.0000 ( 11048 PWs)   bands (ev):

   -29.4130 -29.3777 -29.3231 -29.3001 -29.2706 -29.2145 -29.2022 -29.1724
   -29.1516 -29.1074 -11.8557  -7.5429  -3.8555  -1.9151  -1.5502   0.3618
     2.6047   2.8174   4.2343   4.5268

     occupation numbers 
     1.0000   1.0000   1.0000   1.0000   1.0000   1.0000   1.0000   1.0000
     1.0000   1.0000   1.0000   1.0000   1.0000   1.0000   1.0000   0.0000
     0.0000   0.0000   0.0000   0.0000

          k = 0.0000 0.3849 0.0000 ( 11016 PWs)   bands (ev):

   -29.4110 -29.3592 -29.3209 -29.2879 -29.2614 -29.2240 -29.2080 -29.1838
   -29.1653 -29.1082 -11.4352  -7.8920  -4.1668  -2.1917  -1.7983   0.3072
     2.1924   2.8424   4.5985   4.7177

     occupation numbers 
     1.0000   1.0000   1.0000   1.0000   1.0000   1.0000   1.0000   1.0000
     1.0000   1.0000   1.0000   1.0000   1.0000   1.0000   1.0000   0.0000
     0.0000   0.0000   0.0000   0.0000

          k = 0.0000 0.4619 0.0000 ( 11034 PWs)   bands (ev):

   -29.4094 -29.3446 -29.3136 -29.2746 -29.2524 -29.2352 -29.2167 -29.2022
   -29.1697 -29.1089 -10.9773  -8.3836  -4.1795  -2.3850  -2.1766   0.4816
     1.7931   2.8209   4.3802   5.2626

     occupation numbers 
     1.0000   1.0000   1.0000   1.0000   1.0000   1.0000   1.0000   1.0000
     1.0000   1.0000   1.0000   1.0000   1.0000   1.0000   1.0000   0.0000
     0.0000   0.0000   0.0000   0.0000

          k = 0.0000 0.5389 0.0000 ( 11042 PWs)   bands (ev):

   -29.4085 -29.3389 -29.3020 -29.2612 -29.2485 -29.2475 -29.2231 -29.2160
   -29.1710 -29.1093 -10.6045  -8.8041  -4.0759  -2.4840  -2.4744   0.6982
     1.5099   2.7989   4.1601   5.8973

     occupation numbers 
     1.0000   1.0000   1.0000   1.0000   1.0000   1.0000   1.0000   1.0000
     1.0000   1.0000   1.0000   1.0000   1.0000   1.0000   1.0000   0.0000
     0.0000   0.0000   0.0000   0.0000

          k = 0.0667 0.1155 0.0000 ( 11053 PWs)   bands (ev):

   -29.4174 -29.4104 -29.3246 -29.3206 -29.2845 -29.2001 -29.1970 -29.1640
   -29.1149 -29.1057 -12.5031  -7.3728  -2.0239  -1.6074  -1.1874   1.6786
     1.7009   2.5373   3.8264   3.8494

     occupation numbers 
     1.0000   1.0000   1.0000   1.0000   1.0000   1.0000   1.0000   1.0000
     1.0000   1.0000   1.0000   1.0000   1.0000   1.0000   1.0000   0.0000
     0.0000   0.0000   0.0000   0.0000

          k = 0.0667 0.1925 0.0000 ( 11057 PWs)   bands (ev):

   -29.4159 -29.3997 -29.3236 -29.3146 -29.2802 -29.2049 -29.1978 -29.1666
   -29.1273 -29.1063 -12.3000  -7.3740  -2.8482  -1.6356  -1.5148   1.2275
     2.1447   2.8979   3.9923   4.0997

     occupation numbers 
     1.0000   1.0000   1.0000   1.0000   1.0000   1.0000   1.0000   1.0000
     1.0000   1.0000   1.0000   1.0000   1.0000   1.0000   1.0000   0.0000
     0.0000   0.0000   0.0000   0.0000

          k = 0.0667 0.2694 0.0000 ( 11051 PWs)   bands (ev):

   -29.4139 -29.3846 -29.3225 -29.3061 -29.2734 -29.2120 -29.1997 -29.1703
   -29.1443 -29.1072 -12.0012  -7.4575  -3.5689  -2.0488  -1.4830   0.7935
     2.4599   2.9009   4.1439   4.4086

     occupation numbers 
     1.0000   1.0000   1.0000   1.0000   1.0000   1.0000   1.0000   1.0000
     1.0000   1.0000   1.0000   1.0000   1.0000   1.0000   1.0000   0.0000
     0.0000   0.0000   0.0000   0.0000

          k = 0.0667 0.3464 0.0000 ( 11033 PWs)   bands (ev):

   -29.4119 -29.3664 -29.3211 -29.2954 -29.2644 -29.2211 -29.2035 -29.1775
   -29.1614 -29.1082 -11.6169  -7.7100  -4.0243  -2.3934  -1.5946   0.5640
     2.5276   2.5947   4.4746   4.7068

     occupation numbers 
     1.0000   1.0000   1.0000   1.0000   1.0000   1.0000   1.0000   1.0000
     1.0000   1.0000   1.0000   1.0000   1.0000   1.0000   1.0000   0.0000
     0.0000   0.0000   0.0000   0.0000

          k = 0.0667 0.4234 0.0000 ( 11031 PWs)   bands (ev):

   -29.4100 -29.3487 -29.3170 -29.2832 -29.2545 -29.2319 -29.2100 -29.1941
   -29.1694 -29.1091 -11.1703  -8.1465  -4.1695  -2.6309  -1.9031   0.6147
     2.0806   2.6219   4.6108   5.0259

     occupation numbers 
     1.0000   1.0000   1.0000   1.0000   1.0000   1.0000   1.0000   1.0000
     1.0000   1.0000   1.0000   1.0000   1.0000   1.0000   1.0000   0.0000
     0.0000   0.0000   0.0000   0.0000

          k = 0.0667 0.5004 0.0000 ( 11034 PWs)   bands (ev):

   -29.4088 -29.3384 -29.3065 -29.2704 -29.2483 -29.2424 -29.2194 -29.2105
   -29.1718 -29.1097 -10.7282  -8.6365  -4.1183  -2.7306  -2.2841   0.8524
     1.6706   2.6355   4.3286   5.6419

     occupation numbers 
     1.0000   1.0000   1.0000   1.0000   1.0000   1.0000   1.0000   1.0000
     1.0000   1.0000   1.0000   1.0000   1.0000   1.0000   1.0000   0.0000
     0.0000   0.0000   0.0000   0.0000

          k = 0.0667 0.5774 0.0000 ( 11058 PWs)   bands (ev):

   -29.4083 -29.3360 -29.2983 -29.2582 -29.2580 -29.2440 -29.2203 -29.2201
   -29.1724 -29.1099 -10.5021  -8.8884  -4.0643  -2.7014  -2.5118   1.0646
     1.4164   2.6442   4.1933   6.2566

     occupation numbers 
     1.0000   1.0000   1.0000   1.0000   1.0000   1.0000   1.0000   1.0000
     1.0000   1.0000   1.0000   1.0000   1.0000   1.0000   1.0000   0.0000
     0.0000   0.0000   0.0000   0.0000

          k = 0.1333 0.2309 0.0000 ( 11073 PWs)   bands (ev):

   -29.4143 -29.3869 -29.3214 -29.3092 -29.2740 -29.2115 -29.1984 -29.1698
   -29.1416 -29.1073 -12.0501  -7.4324  -3.3832  -2.2434  -1.4701   1.3295
     2.0057   3.0647   4.2497   4.2565

     occupation numbers 
     1.0000   1.0000   1.0000   1.0000   1.0000   1.0000   1.0000   1.0000
     1.0000   1.0000   1.0000   1.0000   1.0000   1.0000   1.0000   0.0000
     0.0000   0.0000   0.0000   0.0000

          k = 0.1333 0.3079 0.0000 ( 11041 PWs)   bands (ev):

   -29.4124 -29.3701 -29.3191 -29.3020 -29.2652 -29.2205 -29.1999 -29.1752
   -29.1586 -29.1084 -11.7091  -7.6164  -3.8003  -2.7734  -1.4993   1.1309
     2.0795   2.9745   4.4421   4.6241

     occupation numbers 
     1.0000   1.0000   1.0000   1.0000   1.0000   1.0000   1.0000   1.0000
     1.0000   1.0000   1.0000   1.0000   1.0000   1.0000   1.0000   0.0000
     0.0000   0.0000   0.0000   0.0000

          k = 0.1333 0.3849 0.0000 ( 11035 PWs)   bands (ev):

   -29.4106 -29.3513 -29.3164 -29.2925 -29.2547 -29.2315 -29.2033 -29.1885
   -29.1702 -29.1096 -11.2915  -7.9737  -4.0281  -3.1109  -1.6979   1.0100
     2.0431   2.7400   4.7708   4.9748

     occupation numbers 
     1.0000   1.0000   1.0000   1.0000   1.0000   1.0000   1.0000   1.0000
     1.0000   1.0000   1.0000   1.0000   1.0000   1.0000   1.0000   0.0000
     0.0000   0.0000   0.0000   0.0000

          k = 0.1333 0.4619 0.0000 ( 11026 PWs)   bands (ev):

   -29.4091 -29.3359 -29.3096 -29.2812 -29.2467 -29.2418 -29.2117 -29.2054
   -29.1743 -29.1106 -10.8331  -8.4521  -4.1094  -3.2059  -2.0567   1.0698
     1.9225   2.5365   4.6847   5.4660

     occupation numbers 
     1.0000   1.0000   1.0000   1.0000   1.0000   1.0000   1.0000   1.0000
     1.0000   1.0000   1.0000   1.0000   1.0000   1.0000   1.0000   0.0000
     0.0000   0.0000   0.0000   0.0000

          k = 0.1333 0.5389 0.0000 ( 11029 PWs)   bands (ev):

   -29.4083 -29.3299 -29.2972 -29.2698 -29.2584 -29.2385 -29.2228 -29.2134
   -29.1758 -29.1112 -10.4503  -8.8683  -4.1392  -3.0879  -2.4228   1.1941
     1.8026   2.4370   4.4533   6.1343

     occupation numbers 
     1.0000   1.0000   1.0000   1.0000   1.0000   1.0000   1.0000   1.0000
     1.0000   1.0000   1.0000   1.0000   1.0000   1.0000   1.0000   0.0000
     0.0000   0.0000   0.0000   0.0000

          k = 0.2000 0.3464 0.0000 ( 11017 PWs)   bands (ev):

   -29.4108 -29.3522 -29.3149 -29.2971 -29.2546 -29.2315 -29.2006 -29.1864
   -29.1708 -29.1100 -11.3328  -7.9099  -3.8538  -3.4253  -1.6259   1.3893
     1.6245   3.1280   4.7937   4.9346

     occupation numbers 
     1.0000   1.0000   1.0000   1.0000   1.0000   1.0000   1.0000   1.0000
     1.0000   1.0000   1.0000   1.0000   1.0000   1.0000   1.0000   0.0000
     0.0000   0.0000   0.0000   0.0000

          k = 0.2000 0.4234 0.0000 ( 11025 PWs)   bands (ev):

   -29.4094 -29.3334 -29.3103 -29.2892 -29.2450 -29.2429 -29.2057 -29.2021
   -29.1771 -29.1114 -10.8917  -8.3303  -3.9925  -3.6333  -1.8980   1.1878
     1.6995   3.0764   5.0948   5.4026

     occupation numbers 
     1.0000   1.0000   1.0000   1.0000   1.0000   1.0000   1.0000   1.0000
     1.0000   1.0000   1.0000   1.0000   1.0000   1.0000   1.0000   0.0000
     0.0000   0.0000   0.0000   0.0000

          k = 0.2000 0.5004 0.0000 ( 11033 PWs)   bands (ev):

   -29.4084 -29.3214 -29.3001 -29.2790 -29.2588 -29.2346 -29.2240 -29.2059
   -29.1805 -29.1125 -10.4399  -8.7949  -4.2699  -3.3733  -2.2676   0.9451
     2.0401   2.8113   5.0021   5.9926

     occupation numbers 
     1.0000   1.0000   1.0000   1.0000   1.0000   1.0000   1.0000   1.0000
     1.0000   1.0000   1.0000   1.0000   1.0000   1.0000   1.0000   0.0000
     0.0000   0.0000   0.0000   0.0000

          k = 0.2000 0.5774 0.0000 ( 11040 PWs)   bands (ev):

   -29.4080 -29.3190 -29.2890 -29.2728 -29.2687 -29.2379 -29.2261 -29.2085
   -29.1816 -29.1128 -10.1885  -9.0557  -4.3663  -3.1672  -2.5102   0.8643
     2.4003   2.4720   4.9084   6.2986

     occupation numbers 
     1.0000   1.0000   1.0000   1.0000   1.0000   1.0000   1.0000   1.0000
     1.0000   1.0000   1.0000   1.0000   1.0000   1.0000   1.0000   0.0000
     0.0000   0.0000   0.0000   0.0000

          k = 0.2667 0.4619 0.0000 ( 11009 PWs)   bands (ev):

   -29.4084 -29.3151 -29.3047 -29.2822 -29.2590 -29.2331 -29.2243 -29.2020
   -29.1833 -29.1130 -10.4410  -8.7559  -4.3387  -3.4671  -2.1904   0.8245
     2.0131   3.1432   5.7004   5.8524

     occupation numbers 
     1.0000   1.0000   1.0000   1.0000   1.0000   1.0000   1.0000   1.0000
     1.0000   1.0000   1.0000   1.0000   1.0000   1.0000   1.0000   0.0000
     0.0000   0.0000   0.0000   0.0000

          k = 0.2667 0.5389 0.0000 ( 11010 PWs)   bands (ev):

   -29.4078 -29.3062 -29.2930 -29.2753 -29.2706 -29.2417 -29.2261 -29.2019
   -29.1877 -29.1139 -10.0140  -9.1724  -4.5758  -3.1386  -2.5212   0.5816
     2.4181   2.9112   5.7568   5.9330

     occupation numbers 
     1.0000   1.0000   1.0000   1.0000   1.0000   1.0000   1.0000   1.0000
     1.0000   1.0000   1.0000   1.0000   1.0000   1.0000   1.0000   0.0000
     0.0000   0.0000   0.0000   0.0000

          k = 0.3333 0.5774 0.0000 ( 10959 PWs)   bands (ev):

   -29.4077 -29.2929 -29.2896 -29.2894 -29.2577 -29.2576 -29.2238 -29.1954
   -29.1952 -29.1145  -9.5832  -9.5831  -4.7014  -2.8198  -2.8197   0.4326
     2.7461   2.7461   5.7326   6.6837

     occupation numbers 
     1.0000   1.0000   1.0000   1.0000   1.0000   1.0000   1.0000   1.0000
     1.0000   1.0000   1.0000   1.0000   1.0000   1.0000   1.0000   0.0000
     0.0000   0.0000   0.0000   0.0000

     highest occupied, lowest unoccupied level (ev):    -0.7839    0.3072

!    total energy              =    -369.10336995 Ry
     estimated scf accuracy    <       0.00000015 Ry

     The total energy is the sum of the following terms:
     one-electron contribution =    -822.07711820 Ry
     hartree contribution      =     416.43872759 Ry
     xc contribution           =     -86.72679022 Ry
     ewald contribution        =     123.26181088 Ry

     convergence has been achieved in   7 iterations

     negative rho (up, down):  3.747E-06 0.000E+00

     Forces acting on atoms (cartesian axes, Ry/au):

     atom    1 type  1   force =     0.00000000    0.00000000   -0.00006472
     atom    2 type  1   force =     0.00000000    0.00000000    0.00006472
     The non-local contrib.  to forces
     atom    1 type  1   force =     0.00000000    0.00000000    0.49223684
     atom    2 type  1   force =     0.00000000    0.00000000   -0.49275544
     The ionic contribution  to forces
     atom    1 type  1   force =    -0.00000001    0.00000001  -37.16547771
     atom    2 type  1   force =     0.00000001   -0.00000001   37.16547771
     The local contribution  to forces
     atom    1 type  1   force =     0.00000000   -0.00000000   36.67266648
     atom    2 type  1   force =     0.00000040   -0.00000023  -36.67160237
     The core correction contribution to forces
     atom    1 type  1   force =     0.00000000   -0.00000000    0.00155625
     atom    2 type  1   force =     0.00000003   -0.00000002   -0.00150699
     The Hubbard contrib.    to forces
     atom    1 type  1   force =     0.00000000    0.00000000    0.00000000
     atom    2 type  1   force =     0.00000000    0.00000000    0.00000000
     The SCF correction term to forces
     atom    1 type  1   force =     0.00000000   -0.00000000   -0.00000000
     atom    2 type  1   force =    -0.00000000    0.00000000    0.00033045

     Total force =     0.000065     Total SCF correction =     0.000330
     SCF correction compared to forces is large: reduce conv_thr to get better values


     Computing stress (Cartesian axis) and pressure


     negative rho (up, down):  3.747E-06 0.000E+00
          total   stress  (Ry/bohr**3)                   (kbar)     P=       -0.23
  -0.00000154  -0.00000000   0.00000000           -0.23       -0.00        0.00
   0.00000000  -0.00000154   0.00000000            0.00       -0.23        0.00
   0.00000000   0.00000000  -0.00000164            0.00        0.00       -0.24

     kinetic stress (kbar)   4985.08      0.00      0.00
                                0.00   4985.08      0.00
                                0.00      0.00   5010.44

     local   stress (kbar) -67363.03      0.00     -0.00
                                0.00 -67363.03      0.00
                               -0.00      0.00  68157.08

     nonloc. stress (kbar)     93.32      0.00      0.00
                                0.00     93.32      0.00
                                0.00      0.00    111.20

     hartree stress (kbar)  36375.89     -0.00     -0.00
                               -0.00  36375.89     -0.00
                               -0.00     -0.00 -29197.75

     exc-cor stress (kbar)   3017.48      0.00      0.00
                                0.00   3017.48      0.00
                                0.00      0.00   3017.48

     corecor stress (kbar)  -4735.85      0.00      0.00
                                0.00  -4735.85     -0.00
                                0.00     -0.00  -4736.49

     ewald   stress (kbar)  27626.88     -0.00      0.00
                               -0.00  27626.88     -0.00
                                0.00     -0.00 -42362.20

     hubbard stress (kbar)      0.00      0.00      0.00
                                0.00      0.00      0.00
                                0.00      0.00      0.00

     DFT-D   stress (kbar)      0.00      0.00      0.00
                                0.00      0.00      0.00
                                0.00      0.00      0.00

     XDM     stress (kbar)      0.00      0.00      0.00
                                0.00      0.00      0.00
                                0.00      0.00      0.00

     dft-nl  stress (kbar)      0.00      0.00      0.00
                                0.00      0.00      0.00
                                0.00      0.00      0.00

     TS-vdW  stress (kbar)      0.00      0.00      0.00
                                0.00      0.00      0.00
                                0.00      0.00      0.00



     BFGS Geometry Optimization
     Energy error            =      0.0E+00
     Gradient error          =      6.5E-05
     Cell gradient error     =      1.5E-06


     number of scf cycles    =   1
     number of bfgs steps    =   0

     enthalpy new            =    -369.1033699457 Ry

     new trust radius        =       0.0002883962 bohr
     new conv_thr            =       0.0000010000 Ry

     new unit-cell volume =   1406.42679 a.u.^3 (   208.41095 Ang^3 )
     density =      0.19140 g/cm^3

CELL_PARAMETERS (alat=  7.56945975)
   0.999961551   0.000000000   0.000000000
  -0.499980776   0.865992106   0.000000000
   0.000000000   0.000000000   3.744770802

ATOMIC_POSITIONS (crystal)
Sb            0.0000000000        0.0000000000        0.5000000000    0   0   0
Sb            0.3333333330        0.6666666670        0.6085262831



     Writing output data file ./tmp/Sb.save/
     NEW-OLD atomic charge density approx. for the potential

     negative rho (up, down):  4.392E-06 0.000E+00
     extrapolated charge   29.99785, renormalised to   30.00000

     total cpu time spent up to now is       26.0 secs

     Self-consistent Calculation

     iteration #  1     ecut=    60.00 Ry     beta= 0.70
     Davidson diagonalization with overlap
     ethr =  1.00E-06,  avg # of iterations =  2.0

     Threshold (ethr) on eigenvalues was too large:
     Diagonalizing with lowered threshold

     Davidson diagonalization with overlap
     ethr =  9.88E-09,  avg # of iterations =  1.1

     negative rho (up, down):  4.000E-06 0.000E+00

     total cpu time spent up to now is       30.4 secs

     total energy              =    -369.10336591 Ry
     estimated scf accuracy    <       0.00000300 Ry

     iteration #  2     ecut=    60.00 Ry     beta= 0.70
     Davidson diagonalization with overlap
     ethr =  9.99E-09,  avg # of iterations =  3.0

     negative rho (up, down):  3.839E-06 0.000E+00

     total cpu time spent up to now is       33.2 secs

     total energy              =    -369.10336957 Ry
     estimated scf accuracy    <       0.00000635 Ry

     iteration #  3     ecut=    60.00 Ry     beta= 0.70
     Davidson diagonalization with overlap
     ethr =  9.99E-09,  avg # of iterations =  2.0

     negative rho (up, down):  3.797E-06 0.000E+00

     total cpu time spent up to now is       35.5 secs

     total energy              =    -369.10337006 Ry
     estimated scf accuracy    <       0.00000132 Ry

     iteration #  4     ecut=    60.00 Ry     beta= 0.70
     Davidson diagonalization with overlap
     ethr =  4.41E-09,  avg # of iterations =  1.0

     negative rho (up, down):  3.730E-06 0.000E+00

     total cpu time spent up to now is       37.6 secs

     End of self-consistent calculation

          k = 0.0000 0.0000 0.0000 ( 11085 PWs)   bands (ev):

   -29.4119 -29.4119 -29.3187 -29.3187 -29.2808 -29.1897 -29.1897 -29.1555
   -29.0984 -29.0984 -12.6522  -7.3934  -1.6826  -0.7782  -0.7782   0.9036
     2.0709   2.0709   3.6046   3.6906

     occupation numbers 
     1.0000   1.0000   1.0000   1.0000   1.0000   1.0000   1.0000   1.0000
     1.0000   1.0000   1.0000   1.0000   1.0000   1.0000   1.0000   0.0000
     0.0000   0.0000   0.0000   0.0000

          k = 0.0000 0.0770 0.0000 ( 11063 PWs)   bands (ev):

   -29.4115 -29.4091 -29.3185 -29.3170 -29.2799 -29.1908 -29.1899 -29.1562
   -29.1017 -29.0985 -12.6007  -7.3828  -1.6544  -1.3478  -0.9049   1.3171
     1.9654   2.1915   3.6802   3.7480

     occupation numbers 
     1.0000   1.0000   1.0000   1.0000   1.0000   1.0000   1.0000   1.0000
     1.0000   1.0000   1.0000   1.0000   1.0000   1.0000   1.0000   0.0000
     0.0000   0.0000   0.0000   0.0000

          k = 0.0000 0.1540 0.0000 ( 11046 PWs)   bands (ev):

   -29.4102 -29.4010 -29.3178 -29.3119 -29.2769 -29.1943 -29.1905 -29.1581
   -29.1114 -29.0990 -12.4471  -7.3650  -2.3065  -1.5816  -1.2097   1.1907
     2.3772   2.4556   3.8533   3.9416

     occupation numbers 
     1.0000   1.0000   1.0000   1.0000   1.0000   1.0000   1.0000   1.0000
     1.0000   1.0000   1.0000   1.0000   1.0000   1.0000   1.0000   0.0000
     0.0000   0.0000   0.0000   0.0000

          k = 0.0000 0.2309 0.0000 ( 11026 PWs)   bands (ev):

   -29.4084 -29.3879 -29.3171 -29.3038 -29.2716 -29.2000 -29.1922 -29.1611
   -29.1265 -29.0997 -12.1947  -7.3880  -3.1982  -1.5706  -1.5104   0.7107
     2.6958   2.7601   3.9960   4.2375

     occupation numbers 
     1.0000   1.0000   1.0000   1.0000   1.0000   1.0000   1.0000   1.0000
     1.0000   1.0000   1.0000   1.0000   1.0000   1.0000   1.0000   0.0000
     0.0000   0.0000   0.0000   0.0000

          k = 0.0000 0.3079 0.0000 ( 11048 PWs)   bands (ev):

   -29.4063 -29.3709 -29.3163 -29.2933 -29.2640 -29.2077 -29.1954 -29.1658
   -29.1449 -29.1006 -11.8506  -7.5379  -3.8509  -1.9096  -1.5463   0.3665
     2.6094   2.8225   4.2378   4.5297

     occupation numbers 
     1.0000   1.0000   1.0000   1.0000   1.0000   1.0000   1.0000   1.0000
     1.0000   1.0000   1.0000   1.0000   1.0000   1.0000   1.0000   0.0000
     0.0000   0.0000   0.0000   0.0000

          k = 0.0000 0.3849 0.0000 ( 11016 PWs)   bands (ev):

   -29.4042 -29.3523 -29.3141 -29.2811 -29.2548 -29.2172 -29.2012 -29.1770
   -29.1586 -29.1015 -11.4300  -7.8868  -4.1624  -2.1863  -1.7942   0.3117
     2.1969   2.8474   4.6022   4.7213

     occupation numbers 
     1.0000   1.0000   1.0000   1.0000   1.0000   1.0000   1.0000   1.0000
     1.0000   1.0000   1.0000   1.0000   1.0000   1.0000   1.0000   0.0000
     0.0000   0.0000   0.0000   0.0000

          k = 0.0000 0.4619 0.0000 ( 11034 PWs)   bands (ev):

   -29.4026 -29.3377 -29.3069 -29.2678 -29.2457 -29.2283 -29.2099 -29.1955
   -29.1630 -29.1022 -10.9721  -8.3784  -4.1753  -2.3796  -2.1725   0.4862
     1.7973   2.8258   4.3838   5.2661

     occupation numbers 
     1.0000   1.0000   1.0000   1.0000   1.0000   1.0000   1.0000   1.0000
     1.0000   1.0000   1.0000   1.0000   1.0000   1.0000   1.0000   0.0000
     0.0000   0.0000   0.0000   0.0000

          k = 0.0000 0.5389 0.0000 ( 11042 PWs)   bands (ev):

   -29.4017 -29.3320 -29.2953 -29.2543 -29.2417 -29.2406 -29.2165 -29.2093
   -29.1643 -29.1026 -10.5993  -8.7988  -4.0716  -2.4786  -2.4703   0.7031
     1.5137   2.8037   4.1636   5.9008

     occupation numbers 
     1.0000   1.0000   1.0000   1.0000   1.0000   1.0000   1.0000   1.0000
     1.0000   1.0000   1.0000   1.0000   1.0000   1.0000   1.0000   0.0000
     0.0000   0.0000   0.0000   0.0000

          k = 0.0667 0.1155 0.0000 ( 11053 PWs)   bands (ev):

   -29.4106 -29.4036 -29.3178 -29.3138 -29.2779 -29.1933 -29.1902 -29.1575
   -29.1082 -29.0989 -12.4981  -7.3684  -2.0185  -1.6039  -1.1818   1.6842
     1.7061   2.5427   3.8303   3.8519

     occupation numbers 
     1.0000   1.0000   1.0000   1.0000   1.0000   1.0000   1.0000   1.0000
     1.0000   1.0000   1.0000   1.0000   1.0000   1.0000   1.0000   0.0000
     0.0000   0.0000   0.0000   0.0000

          k = 0.0667 0.1925 0.0000 ( 11057 PWs)   bands (ev):

   -29.4091 -29.3930 -29.3167 -29.3078 -29.2736 -29.1981 -29.1910 -29.1600
   -29.1206 -29.0995 -12.2950  -7.3694  -2.8430  -1.6303  -1.5110   1.2326
     2.1500   2.9030   3.9957   4.1031

     occupation numbers 
     1.0000   1.0000   1.0000   1.0000   1.0000   1.0000   1.0000   1.0000
     1.0000   1.0000   1.0000   1.0000   1.0000   1.0000   1.0000   0.0000
     0.0000   0.0000   0.0000   0.0000

          k = 0.0667 0.2694 0.0000 ( 11051 PWs)   bands (ev):

   -29.4072 -29.3778 -29.3157 -29.2992 -29.2668 -29.2052 -29.1929 -29.1637
   -29.1375 -29.1004 -11.9962  -7.4527  -3.5641  -2.0434  -1.4792   0.7984
     2.4650   2.9058   4.1475   4.4115

     occupation numbers 
     1.0000   1.0000   1.0000   1.0000   1.0000   1.0000   1.0000   1.0000
     1.0000   1.0000   1.0000   1.0000   1.0000   1.0000   1.0000   0.0000
     0.0000   0.0000   0.0000   0.0000

          k = 0.0667 0.3464 0.0000 ( 11033 PWs)   bands (ev):

   -29.4051 -29.3596 -29.3143 -29.2886 -29.2577 -29.2143 -29.1967 -29.1708
   -29.1547 -29.1014 -11.6117  -7.7049  -4.0198  -2.3881  -1.5905   0.5685
     2.5323   2.5995   4.4782   4.7101

     occupation numbers 
     1.0000   1.0000   1.0000   1.0000   1.0000   1.0000   1.0000   1.0000
     1.0000   1.0000   1.0000   1.0000   1.0000   1.0000   1.0000   0.0000
     0.0000   0.0000   0.0000   0.0000

          k = 0.0667 0.4234 0.0000 ( 11031 PWs)   bands (ev):

   -29.4033 -29.3419 -29.3103 -29.2764 -29.2478 -29.2251 -29.2033 -29.1874
   -29.1627 -29.1023 -11.1652  -8.1413  -4.1652  -2.6257  -1.8989   0.6191
     2.0852   2.6266   4.6146   5.0295

     occupation numbers 
     1.0000   1.0000   1.0000   1.0000   1.0000   1.0000   1.0000   1.0000
     1.0000   1.0000   1.0000   1.0000   1.0000   1.0000   1.0000   0.0000
     0.0000   0.0000   0.0000   0.0000

          k = 0.0667 0.5004 0.0000 ( 11034 PWs)   bands (ev):

   -29.4020 -29.3316 -29.2998 -29.2636 -29.2415 -29.2356 -29.2127 -29.2039
   -29.1651 -29.1029 -10.7229  -8.6312  -4.1140  -2.7255  -2.2799   0.8570
     1.6749   2.6402   4.3322   5.6454

     occupation numbers 
     1.0000   1.0000   1.0000   1.0000   1.0000   1.0000   1.0000   1.0000
     1.0000   1.0000   1.0000   1.0000   1.0000   1.0000   1.0000   0.0000
     0.0000   0.0000   0.0000   0.0000

          k = 0.0667 0.5774 0.0000 ( 11058 PWs)   bands (ev):

   -29.4016 -29.3291 -29.2916 -29.2514 -29.2511 -29.2372 -29.2137 -29.2135
   -29.1657 -29.1031 -10.4968  -8.8832  -4.0600  -2.6962  -2.5077   1.0696
     1.4202   2.6488   4.1968   6.2602

     occupation numbers 
     1.0000   1.0000   1.0000   1.0000   1.0000   1.0000   1.0000   1.0000
     1.0000   1.0000   1.0000   1.0000   1.0000   1.0000   1.0000   0.0000
     0.0000   0.0000   0.0000   0.0000

          k = 0.1333 0.2309 0.0000 ( 11073 PWs)   bands (ev):

   -29.4075 -29.3801 -29.3145 -29.3024 -29.2675 -29.2047 -29.1916 -29.1632
   -29.1348 -29.1005 -12.0451  -7.4276  -3.3783  -2.2380  -1.4663   1.3343
     2.0110   3.0696   4.2527   4.2604

     occupation numbers 
     1.0000   1.0000   1.0000   1.0000   1.0000   1.0000   1.0000   1.0000
     1.0000   1.0000   1.0000   1.0000   1.0000   1.0000   1.0000   0.0000
     0.0000   0.0000   0.0000   0.0000

          k = 0.1333 0.3079 0.0000 ( 11041 PWs)   bands (ev):

   -29.4057 -29.3633 -29.3123 -29.2953 -29.2585 -29.2137 -29.1931 -29.1686
   -29.1519 -29.1017 -11.7041  -7.6114  -3.7957  -2.7682  -1.4953   1.1355
     2.0843   2.9795   4.4458   4.6276

     occupation numbers 
     1.0000   1.0000   1.0000   1.0000   1.0000   1.0000   1.0000   1.0000
     1.0000   1.0000   1.0000   1.0000   1.0000   1.0000   1.0000   0.0000
     0.0000   0.0000   0.0000   0.0000

          k = 0.1333 0.3849 0.0000 ( 11035 PWs)   bands (ev):

   -29.4038 -29.3445 -29.3096 -29.2857 -29.2480 -29.2247 -29.1966 -29.1817
   -29.1636 -29.1029 -11.2864  -7.9684  -4.0237  -3.1059  -1.6938   1.0143
     2.0476   2.7450   4.7748   4.9785

     occupation numbers 
     1.0000   1.0000   1.0000   1.0000   1.0000   1.0000   1.0000   1.0000
     1.0000   1.0000   1.0000   1.0000   1.0000   1.0000   1.0000   0.0000
     0.0000   0.0000   0.0000   0.0000

          k = 0.1333 0.4619 0.0000 ( 11026 PWs)   bands (ev):

   -29.4024 -29.3290 -29.3029 -29.2745 -29.2399 -29.2351 -29.2050 -29.1987
   -29.1677 -29.1038 -10.8278  -8.4468  -4.1049  -3.2011  -2.0525   1.0740
     1.9271   2.5412   4.6886   5.4696

     occupation numbers 
     1.0000   1.0000   1.0000   1.0000   1.0000   1.0000   1.0000   1.0000
     1.0000   1.0000   1.0000   1.0000   1.0000   1.0000   1.0000   0.0000
     0.0000   0.0000   0.0000   0.0000

          k = 0.1333 0.5389 0.0000 ( 11029 PWs)   bands (ev):

   -29.4016 -29.3230 -29.2905 -29.2630 -29.2516 -29.2317 -29.2161 -29.2067
   -29.1692 -29.1044 -10.4451  -8.8630  -4.1347  -3.0831  -2.4186   1.1982
     1.8076   2.4413   4.4571   6.1379

     occupation numbers 
     1.0000   1.0000   1.0000   1.0000   1.0000   1.0000   1.0000   1.0000
     1.0000   1.0000   1.0000   1.0000   1.0000   1.0000   1.0000   0.0000
     0.0000   0.0000   0.0000   0.0000

          k = 0.2000 0.3464 0.0000 ( 11017 PWs)   bands (ev):

   -29.4040 -29.3454 -29.3081 -29.2904 -29.2479 -29.2247 -29.1938 -29.1797
   -29.1641 -29.1032 -11.3276  -7.9047  -3.8494  -3.4202  -1.6217   1.3935
     1.6290   3.1332   4.7981   4.9383

     occupation numbers 
     1.0000   1.0000   1.0000   1.0000   1.0000   1.0000   1.0000   1.0000
     1.0000   1.0000   1.0000   1.0000   1.0000   1.0000   1.0000   0.0000
     0.0000   0.0000   0.0000   0.0000

          k = 0.2000 0.4234 0.0000 ( 11025 PWs)   bands (ev):

   -29.4026 -29.3266 -29.3035 -29.2825 -29.2382 -29.2362 -29.1990 -29.1954
   -29.1705 -29.1046 -10.8865  -8.3249  -3.9878  -3.6288  -1.8938   1.1920
     1.7036   3.0815   5.0993   5.4062

     occupation numbers 
     1.0000   1.0000   1.0000   1.0000   1.0000   1.0000   1.0000   1.0000
     1.0000   1.0000   1.0000   1.0000   1.0000   1.0000   1.0000   0.0000
     0.0000   0.0000   0.0000   0.0000

          k = 0.2000 0.5004 0.0000 ( 11033 PWs)   bands (ev):

   -29.4016 -29.3146 -29.2934 -29.2722 -29.2520 -29.2278 -29.2173 -29.1992
   -29.1739 -29.1057 -10.4346  -8.7895  -4.2651  -3.3689  -2.2634   0.9492
     2.0442   2.8160   5.0063   5.9962

     occupation numbers 
     1.0000   1.0000   1.0000   1.0000   1.0000   1.0000   1.0000   1.0000
     1.0000   1.0000   1.0000   1.0000   1.0000   1.0000   1.0000   0.0000
     0.0000   0.0000   0.0000   0.0000

          k = 0.2000 0.5774 0.0000 ( 11040 PWs)   bands (ev):

   -29.4012 -29.3121 -29.2823 -29.2660 -29.2620 -29.2312 -29.2193 -29.2019
   -29.1749 -29.1061 -10.1832  -9.0504  -4.3615  -3.1628  -2.5060   0.8684
     2.4044   2.4768   4.9126   6.3021

     occupation numbers 
     1.0000   1.0000   1.0000   1.0000   1.0000   1.0000   1.0000   1.0000
     1.0000   1.0000   1.0000   1.0000   1.0000   1.0000   1.0000   0.0000
     0.0000   0.0000   0.0000   0.0000

          k = 0.2667 0.4619 0.0000 ( 11009 PWs)   bands (ev):

   -29.4016 -29.3083 -29.2979 -29.2755 -29.2522 -29.2263 -29.2176 -29.1953
   -29.1766 -29.1062 -10.4358  -8.7505  -4.3338  -3.4628  -2.1861   0.8286
     2.0171   3.1479   5.7053   5.8562

     occupation numbers 
     1.0000   1.0000   1.0000   1.0000   1.0000   1.0000   1.0000   1.0000
     1.0000   1.0000   1.0000   1.0000   1.0000   1.0000   1.0000   0.0000
     0.0000   0.0000   0.0000   0.0000

          k = 0.2667 0.5389 0.0000 ( 11010 PWs)   bands (ev):

   -29.4011 -29.2994 -29.2862 -29.2685 -29.2639 -29.2350 -29.2192 -29.1952
   -29.1811 -29.1072 -10.0086  -9.1671  -4.5710  -3.1344  -2.5169   0.5856
     2.4221   2.9156   5.7613   5.9369

     occupation numbers 
     1.0000   1.0000   1.0000   1.0000   1.0000   1.0000   1.0000   1.0000
     1.0000   1.0000   1.0000   1.0000   1.0000   1.0000   1.0000   0.0000
     0.0000   0.0000   0.0000   0.0000

          k = 0.3333 0.5774 0.0000 ( 10959 PWs)   bands (ev):

   -29.4009 -29.2861 -29.2827 -29.2826 -29.2510 -29.2509 -29.2169 -29.1887
   -29.1886 -29.1077  -9.5778  -9.5777  -4.6965  -2.8155  -2.8155   0.4366
     2.7502   2.7503   5.7360   6.6885

     occupation numbers 
     1.0000   1.0000   1.0000   1.0000   1.0000   1.0000   1.0000   1.0000
     1.0000   1.0000   1.0000   1.0000   1.0000   1.0000   1.0000   0.0000
     0.0000   0.0000   0.0000   0.0000

     highest occupied, lowest unoccupied level (ev):    -0.7782    0.3117

!    total energy              =    -369.10336965 Ry
     estimated scf accuracy    <       0.00000056 Ry

     The total energy is the sum of the following terms:
     one-electron contribution =    -822.10499514 Ry
     hartree contribution      =     416.44799574 Ry
     xc contribution           =     -86.72608980 Ry
     ewald contribution        =     123.27971954 Ry

     convergence has been achieved in   4 iterations

     negative rho (up, down):  3.730E-06 0.000E+00

     Forces acting on atoms (cartesian axes, Ry/au):

     atom    1 type  1   force =     0.00000000    0.00000000    0.00075320
     atom    2 type  1   force =     0.00000000    0.00000000   -0.00075320
     The non-local contrib.  to forces
     atom    1 type  1   force =     0.00000000    0.00000000    0.49255148
     atom    2 type  1   force =     0.00000000   -0.00000000   -0.49278923
     The ionic contribution  to forces
     atom    1 type  1   force =    -0.00000001    0.00000001  -37.16922079
     atom    2 type  1   force =     0.00000001   -0.00000001   37.16922079
     The local contribution  to forces
     atom    1 type  1   force =     0.00000000   -0.00000000   36.67369468
     atom    2 type  1   force =     0.00000040   -0.00000023  -36.67299105
     The core correction contribution to forces
     atom    1 type  1   force =     0.00000000   -0.00000000    0.00144447
     atom    2 type  1   force =     0.00000003   -0.00000002   -0.00144195
     The Hubbard contrib.    to forces
     atom    1 type  1   force =     0.00000000    0.00000000    0.00000000
     atom    2 type  1   force =     0.00000000    0.00000000    0.00000000
     The SCF correction term to forces
     atom    1 type  1   force =    -0.00000000    0.00000000    0.00000000
     atom    2 type  1   force =     0.00000000   -0.00000000   -0.00287795

     Total force =     0.000753     Total SCF correction =     0.002878
     SCF correction compared to forces is large: reduce conv_thr to get better values


     Computing stress (Cartesian axis) and pressure


     negative rho (up, down):  3.730E-06 0.000E+00
          total   stress  (Ry/bohr**3)                   (kbar)     P=       -2.11
  -0.00001386  -0.00000000   0.00000000           -2.04       -0.00        0.00
  -0.00000000  -0.00001386   0.00000000           -0.00       -2.04        0.00
   0.00000000   0.00000000  -0.00001530            0.00        0.00       -2.25

     kinetic stress (kbar)   4985.51     -0.00      0.00
                               -0.00   4985.51      0.00
                                0.00     -0.00   5010.82

     local   stress (kbar) -67371.97      0.00     -0.00
                                0.00 -67371.97      0.00
                               -0.00      0.00  68166.52

     nonloc. stress (kbar)     91.57     -0.00      0.00
                               -0.00     91.57      0.00
                                0.00      0.00    109.48

     hartree stress (kbar)  36380.09      0.00     -0.00
                                0.00  36380.09     -0.00
                               -0.00     -0.00 -29201.84

     exc-cor stress (kbar)   3017.72      0.00      0.00
                                0.00   3017.72      0.00
                                0.00      0.00   3017.72

     corecor stress (kbar)  -4736.20      0.00      0.00
                                0.00  -4736.20     -0.00
                                0.00     -0.00  -4736.85

     ewald   stress (kbar)  27631.26     -0.00      0.00
                               -0.00  27631.26     -0.00
                                0.00     -0.00 -42368.10

     hubbard stress (kbar)      0.00      0.00      0.00
                                0.00      0.00      0.00
                                0.00      0.00      0.00

     DFT-D   stress (kbar)      0.00      0.00      0.00
                                0.00      0.00      0.00
                                0.00      0.00      0.00

     XDM     stress (kbar)      0.00      0.00      0.00
                                0.00      0.00      0.00
                                0.00      0.00      0.00

     dft-nl  stress (kbar)      0.00      0.00      0.00
                                0.00      0.00      0.00
                                0.00      0.00      0.00

     TS-vdW  stress (kbar)      0.00      0.00      0.00
                                0.00      0.00      0.00
                                0.00      0.00      0.00


     Energy error            =      2.9E-07
     Gradient error          =      7.5E-04
     Cell gradient error     =      1.4E-05


     number of scf cycles    =   2
     number of bfgs steps    =   1

     enthalpy old            =    -369.1033699457 Ry
     enthalpy new            =    -369.1033696518 Ry

     CASE: enthalpy_new > enthalpy_old

     new trust radius        =       0.0000529497 bohr

     trust_radius < trust_radius_min

     resetting bfgs history

     new conv_thr            =       0.0000010000 Ry

     new unit-cell volume =   1406.42679 a.u.^3 (   208.41095 Ang^3 )
     density =      0.19140 g/cm^3

CELL_PARAMETERS (alat=  7.56945975)
   0.999961551   0.000000000   0.000000000
  -0.499980776   0.865992106   0.000000000
   0.000000000   0.000000000   3.744770802

ATOMIC_POSITIONS (crystal)
Sb            0.0000000000        0.0000000000        0.5000000000    0   0   0
Sb            0.3333333330        0.6666666670        0.6085262831



     Writing output data file ./tmp/Sb.save/
     NEW-OLD atomic charge density approx. for the potential

     negative rho (up, down):  3.730E-06 0.000E+00

     total cpu time spent up to now is       43.3 secs

     Self-consistent Calculation

     iteration #  1     ecut=    60.00 Ry     beta= 0.70
     Davidson diagonalization with overlap
     ethr =  1.00E-06,  avg # of iterations =  1.4

     Threshold (ethr) on eigenvalues was too large:
     Diagonalizing with lowered threshold

     Davidson diagonalization with overlap
     ethr =  3.39E-09,  avg # of iterations =  1.2

     negative rho (up, down):  3.747E-06 0.000E+00

     total cpu time spent up to now is       47.6 secs

     total energy              =    -369.10336942 Ry
     estimated scf accuracy    <       0.00000106 Ry

     iteration #  2     ecut=    60.00 Ry     beta= 0.70
     Davidson diagonalization with overlap
     ethr =  3.52E-09,  avg # of iterations =  2.0

     negative rho (up, down):  3.741E-06 0.000E+00

     total cpu time spent up to now is       50.5 secs

     total energy              =    -369.10336914 Ry
     estimated scf accuracy    <       0.00000350 Ry

     iteration #  3     ecut=    60.00 Ry     beta= 0.70
     Davidson diagonalization with overlap
     ethr =  3.52E-09,  avg # of iterations =  2.0

     negative rho (up, down):  3.737E-06 0.000E+00

     total cpu time spent up to now is       52.9 secs

     total energy              =    -369.10336977 Ry
     estimated scf accuracy    <       0.00000122 Ry

     iteration #  4     ecut=    60.00 Ry     beta= 0.70
     Davidson diagonalization with overlap
     ethr =  3.52E-09,  avg # of iterations =  1.6

     negative rho (up, down):  3.736E-06 0.000E+00

     total cpu time spent up to now is       55.1 secs

     End of self-consistent calculation

          k = 0.0000 0.0000 0.0000 ( 11085 PWs)   bands (ev):

   -29.4180 -29.4180 -29.3248 -29.3248 -29.2868 -29.1958 -29.1958 -29.1615
   -29.1044 -29.1044 -12.6564  -7.3966  -1.6849  -0.7824  -0.7824   0.8998
     2.0671   2.0671   3.6039   3.6909

     occupation numbers 
     1.0000   1.0000   1.0000   1.0000   1.0000   1.0000   1.0000   1.0000
     1.0000   1.0000   1.0000   1.0000   1.0000   1.0000   1.0000   0.0000
     0.0000   0.0000   0.0000   0.0000

          k = 0.0000 0.0770 0.0000 ( 11063 PWs)   bands (ev):

   -29.4175 -29.4152 -29.3246 -29.3231 -29.2859 -29.1969 -29.1960 -29.1622
   -29.1078 -29.1046 -12.6049  -7.3860  -1.6567  -1.3519  -0.9091   1.3133
     1.9617   2.1877   3.6794   3.7484

     occupation numbers 
     1.0000   1.0000   1.0000   1.0000   1.0000   1.0000   1.0000   1.0000
     1.0000   1.0000   1.0000   1.0000   1.0000   1.0000   1.0000   0.0000
     0.0000   0.0000   0.0000   0.0000

          k = 0.0000 0.1540 0.0000 ( 11046 PWs)   bands (ev):

   -29.4163 -29.4070 -29.3239 -29.3180 -29.2829 -29.2004 -29.1966 -29.1641
   -29.1174 -29.1051 -12.4513  -7.3682  -2.3105  -1.5840  -1.2138   1.1871
     2.3739   2.4518   3.8528   3.9413

     occupation numbers 
     1.0000   1.0000   1.0000   1.0000   1.0000   1.0000   1.0000   1.0000
     1.0000   1.0000   1.0000   1.0000   1.0000   1.0000   1.0000   0.0000
     0.0000   0.0000   0.0000   0.0000

          k = 0.0000 0.2309 0.0000 ( 11026 PWs)   bands (ev):

   -29.4145 -29.3939 -29.3232 -29.3099 -29.2776 -29.2061 -29.1982 -29.1671
   -29.1326 -29.1058 -12.1990  -7.3914  -3.2020  -1.5747  -1.5128   0.7072
     2.6922   2.7571   3.9953   4.2373

     occupation numbers 
     1.0000   1.0000   1.0000   1.0000   1.0000   1.0000   1.0000   1.0000
     1.0000   1.0000   1.0000   1.0000   1.0000   1.0000   1.0000   0.0000
     0.0000   0.0000   0.0000   0.0000

          k = 0.0000 0.3079 0.0000 ( 11048 PWs)   bands (ev):

   -29.4124 -29.3770 -29.3224 -29.2994 -29.2700 -29.2138 -29.2015 -29.1718
   -29.1509 -29.1067 -11.8548  -7.5415  -3.8544  -1.9137  -1.5490   0.3632
     2.6063   2.8190   4.2372   4.5296

     occupation numbers 
     1.0000   1.0000   1.0000   1.0000   1.0000   1.0000   1.0000   1.0000
     1.0000   1.0000   1.0000   1.0000   1.0000   1.0000   1.0000   0.0000
     0.0000   0.0000   0.0000   0.0000

          k = 0.0000 0.3849 0.0000 ( 11016 PWs)   bands (ev):

   -29.4103 -29.3584 -29.3202 -29.2872 -29.2608 -29.2233 -29.2073 -29.1831
   -29.1647 -29.1075 -11.4343  -7.8907  -4.1658  -2.1904  -1.7970   0.3086
     2.1939   2.8441   4.6008   4.7208

     occupation numbers 
     1.0000   1.0000   1.0000   1.0000   1.0000   1.0000   1.0000   1.0000
     1.0000   1.0000   1.0000   1.0000   1.0000   1.0000   1.0000   0.0000
     0.0000   0.0000   0.0000   0.0000

          k = 0.0000 0.4619 0.0000 ( 11034 PWs)   bands (ev):

   -29.4087 -29.3438 -29.3130 -29.2739 -29.2517 -29.2344 -29.2160 -29.2015
   -29.1691 -29.1082 -10.9763  -8.3824  -4.1785  -2.3837  -2.1754   0.4830
     1.7945   2.8225   4.3820   5.2656

     occupation numbers 
     1.0000   1.0000   1.0000   1.0000   1.0000   1.0000   1.0000   1.0000
     1.0000   1.0000   1.0000   1.0000   1.0000   1.0000   1.0000   0.0000
     0.0000   0.0000   0.0000   0.0000

          k = 0.0000 0.5389 0.0000 ( 11042 PWs)   bands (ev):

   -29.4078 -29.3381 -29.3014 -29.2604 -29.2478 -29.2467 -29.2225 -29.2153
   -29.1704 -29.1086 -10.6035  -8.8029  -4.0748  -2.4827  -2.4732   0.6996
     1.5112   2.8005   4.1617   5.9000

     occupation numbers 
     1.0000   1.0000   1.0000   1.0000   1.0000   1.0000   1.0000   1.0000
     1.0000   1.0000   1.0000   1.0000   1.0000   1.0000   1.0000   0.0000
     0.0000   0.0000   0.0000   0.0000

          k = 0.0667 0.1155 0.0000 ( 11053 PWs)   bands (ev):

   -29.4167 -29.4097 -29.3239 -29.3199 -29.2839 -29.1994 -29.1963 -29.1635
   -29.1142 -29.1049 -12.5024  -7.3716  -2.0225  -1.6062  -1.1859   1.6804
     1.7025   2.5391   3.8294   3.8522

     occupation numbers 
     1.0000   1.0000   1.0000   1.0000   1.0000   1.0000   1.0000   1.0000
     1.0000   1.0000   1.0000   1.0000   1.0000   1.0000   1.0000   0.0000
     0.0000   0.0000   0.0000   0.0000

          k = 0.0667 0.1925 0.0000 ( 11057 PWs)   bands (ev):

   -29.4152 -29.3990 -29.3228 -29.3139 -29.2796 -29.2042 -29.1971 -29.1660
   -29.1266 -29.1056 -12.2993  -7.3727  -2.8469  -1.6342  -1.5136   1.2291
     2.1464   2.8998   3.9952   4.1026

     occupation numbers 
     1.0000   1.0000   1.0000   1.0000   1.0000   1.0000   1.0000   1.0000
     1.0000   1.0000   1.0000   1.0000   1.0000   1.0000   1.0000   0.0000
     0.0000   0.0000   0.0000   0.0000

          k = 0.0667 0.2694 0.0000 ( 11051 PWs)   bands (ev):

   -29.4133 -29.3839 -29.3218 -29.3053 -29.2728 -29.2113 -29.1990 -29.1697
   -29.1436 -29.1065 -12.0004  -7.4562  -3.5678  -2.0474  -1.4817   0.7951
     2.4616   2.9026   4.1468   4.4113

     occupation numbers 
     1.0000   1.0000   1.0000   1.0000   1.0000   1.0000   1.0000   1.0000
     1.0000   1.0000   1.0000   1.0000   1.0000   1.0000   1.0000   0.0000
     0.0000   0.0000   0.0000   0.0000

          k = 0.0667 0.3464 0.0000 ( 11033 PWs)   bands (ev):

   -29.4112 -29.3657 -29.3204 -29.2947 -29.2638 -29.2204 -29.2028 -29.1769
   -29.1608 -29.1075 -11.6160  -7.7086  -4.0233  -2.3921  -1.5933   0.5654
     2.5291   2.5963   4.4774   4.7095

     occupation numbers 
     1.0000   1.0000   1.0000   1.0000   1.0000   1.0000   1.0000   1.0000
     1.0000   1.0000   1.0000   1.0000   1.0000   1.0000   1.0000   0.0000
     0.0000   0.0000   0.0000   0.0000

          k = 0.0667 0.4234 0.0000 ( 11031 PWs)   bands (ev):

   -29.4093 -29.3480 -29.3164 -29.2825 -29.2539 -29.2312 -29.2094 -29.1935
   -29.1688 -29.1084 -11.1694  -8.1452  -4.1685  -2.6296  -1.9019   0.6161
     2.0821   2.6235   4.6127   5.0290

     occupation numbers 
     1.0000   1.0000   1.0000   1.0000   1.0000   1.0000   1.0000   1.0000
     1.0000   1.0000   1.0000   1.0000   1.0000   1.0000   1.0000   0.0000
     0.0000   0.0000   0.0000   0.0000

          k = 0.0667 0.5004 0.0000 ( 11034 PWs)   bands (ev):

   -29.4081 -29.3377 -29.3058 -29.2697 -29.2476 -29.2417 -29.2188 -29.2099
   -29.1712 -29.1090 -10.7272  -8.6353  -4.1172  -2.7294  -2.2829   0.8539
     1.6720   2.6371   4.3303   5.6449

     occupation numbers 
     1.0000   1.0000   1.0000   1.0000   1.0000   1.0000   1.0000   1.0000
     1.0000   1.0000   1.0000   1.0000   1.0000   1.0000   1.0000   0.0000
     0.0000   0.0000   0.0000   0.0000

          k = 0.0667 0.5774 0.0000 ( 11058 PWs)   bands (ev):

   -29.4076 -29.3352 -29.2977 -29.2574 -29.2573 -29.2433 -29.2197 -29.2196
   -29.1718 -29.1092 -10.5011  -8.8873  -4.0632  -2.7001  -2.5106   1.0661
     1.4177   2.6457   4.1949   6.2593

     occupation numbers 
     1.0000   1.0000   1.0000   1.0000   1.0000   1.0000   1.0000   1.0000
     1.0000   1.0000   1.0000   1.0000   1.0000   1.0000   1.0000   0.0000
     0.0000   0.0000   0.0000   0.0000

          k = 0.1333 0.2309 0.0000 ( 11073 PWs)   bands (ev):

   -29.4136 -29.3862 -29.3206 -29.3085 -29.2735 -29.2108 -29.1977 -29.1692
   -29.1409 -29.1066 -12.0493  -7.4311  -3.3820  -2.2420  -1.4689   1.3311
     2.0074   3.0665   4.2523   4.2595

     occupation numbers 
     1.0000   1.0000   1.0000   1.0000   1.0000   1.0000   1.0000   1.0000
     1.0000   1.0000   1.0000   1.0000   1.0000   1.0000   1.0000   0.0000
     0.0000   0.0000   0.0000   0.0000

          k = 0.1333 0.3079 0.0000 ( 11041 PWs)   bands (ev):

   -29.4117 -29.3694 -29.3184 -29.3013 -29.2646 -29.2198 -29.1992 -29.1746
   -29.1579 -29.1077 -11.7083  -7.6151  -3.7992  -2.7721  -1.4980   1.1324
     2.0810   2.9762   4.4448   4.6269

     occupation numbers 
     1.0000   1.0000   1.0000   1.0000   1.0000   1.0000   1.0000   1.0000
     1.0000   1.0000   1.0000   1.0000   1.0000   1.0000   1.0000   0.0000
     0.0000   0.0000   0.0000   0.0000

          k = 0.1333 0.3849 0.0000 ( 11035 PWs)   bands (ev):

   -29.4099 -29.3506 -29.3157 -29.2918 -29.2541 -29.2308 -29.2026 -29.1878
   -29.1696 -29.1089 -11.2906  -7.9724  -4.0271  -3.1097  -1.6966   1.0115
     2.0446   2.7417   4.7731   4.9778

     occupation numbers 
     1.0000   1.0000   1.0000   1.0000   1.0000   1.0000   1.0000   1.0000
     1.0000   1.0000   1.0000   1.0000   1.0000   1.0000   1.0000   0.0000
     0.0000   0.0000   0.0000   0.0000

          k = 0.1333 0.4619 0.0000 ( 11026 PWs)   bands (ev):

   -29.4084 -29.3351 -29.3089 -29.2805 -29.2460 -29.2411 -29.2111 -29.2047
   -29.1737 -29.1099 -10.8321  -8.4508  -4.1083  -3.2048  -2.0554   1.0712
     1.9240   2.5381   4.6864   5.4691

     occupation numbers 
     1.0000   1.0000   1.0000   1.0000   1.0000   1.0000   1.0000   1.0000
     1.0000   1.0000   1.0000   1.0000   1.0000   1.0000   1.0000   0.0000
     0.0000   0.0000   0.0000   0.0000

          k = 0.1333 0.5389 0.0000 ( 11029 PWs)   bands (ev):

   -29.4076 -29.3291 -29.2965 -29.2691 -29.2577 -29.2378 -29.2221 -29.2128
   -29.1752 -29.1105 -10.4493  -8.8672  -4.1381  -3.0867  -2.4216   1.1955
     1.8042   2.4385   4.4550   6.1373

     occupation numbers 
     1.0000   1.0000   1.0000   1.0000   1.0000   1.0000   1.0000   1.0000
     1.0000   1.0000   1.0000   1.0000   1.0000   1.0000   1.0000   0.0000
     0.0000   0.0000   0.0000   0.0000

          k = 0.2000 0.3464 0.0000 ( 11017 PWs)   bands (ev):

   -29.4101 -29.3515 -29.3141 -29.2965 -29.2540 -29.2308 -29.1999 -29.1858
   -29.1702 -29.1093 -11.3319  -7.9086  -3.8527  -3.4241  -1.6246   1.3908
     1.6259   3.1298   4.7958   4.9377

     occupation numbers 
     1.0000   1.0000   1.0000   1.0000   1.0000   1.0000   1.0000   1.0000
     1.0000   1.0000   1.0000   1.0000   1.0000   1.0000   1.0000   0.0000
     0.0000   0.0000   0.0000   0.0000

          k = 0.2000 0.4234 0.0000 ( 11025 PWs)   bands (ev):

   -29.4087 -29.3327 -29.3096 -29.2886 -29.2443 -29.2422 -29.2050 -29.2014
   -29.1765 -29.1107 -10.8908  -8.3290  -3.9914  -3.6322  -1.8967   1.1892
     1.7010   3.0782   5.0967   5.4057

     occupation numbers 
     1.0000   1.0000   1.0000   1.0000   1.0000   1.0000   1.0000   1.0000
     1.0000   1.0000   1.0000   1.0000   1.0000   1.0000   1.0000   0.0000
     0.0000   0.0000   0.0000   0.0000

          k = 0.2000 0.5004 0.0000 ( 11033 PWs)   bands (ev):

   -29.4077 -29.3207 -29.2994 -29.2783 -29.2581 -29.2338 -29.2233 -29.2052
   -29.1799 -29.1118 -10.4389  -8.7937  -4.2689  -3.3722  -2.2664   0.9464
     2.0416   2.8129   5.0038   5.9955

     occupation numbers 
     1.0000   1.0000   1.0000   1.0000   1.0000   1.0000   1.0000   1.0000
     1.0000   1.0000   1.0000   1.0000   1.0000   1.0000   1.0000   0.0000
     0.0000   0.0000   0.0000   0.0000

          k = 0.2000 0.5774 0.0000 ( 11040 PWs)   bands (ev):

   -29.4073 -29.3182 -29.2883 -29.2721 -29.2681 -29.2372 -29.2254 -29.2079
   -29.1810 -29.1121 -10.1874  -9.0545  -4.3652  -3.1660  -2.5090   0.8656
     2.4018   2.4736   4.9101   6.3007

     occupation numbers 
     1.0000   1.0000   1.0000   1.0000   1.0000   1.0000   1.0000   1.0000
     1.0000   1.0000   1.0000   1.0000   1.0000   1.0000   1.0000   0.0000
     0.0000   0.0000   0.0000   0.0000

          k = 0.2667 0.4619 0.0000 ( 11009 PWs)   bands (ev):

   -29.4077 -29.3144 -29.3040 -29.2815 -29.2583 -29.2324 -29.2236 -29.2014
   -29.1827 -29.1123 -10.4400  -8.7547  -4.3377  -3.4660  -2.1891   0.8258
     2.0146   3.1449   5.7024   5.8551

     occupation numbers 
     1.0000   1.0000   1.0000   1.0000   1.0000   1.0000   1.0000   1.0000
     1.0000   1.0000   1.0000   1.0000   1.0000   1.0000   1.0000   0.0000
     0.0000   0.0000   0.0000   0.0000

          k = 0.2667 0.5389 0.0000 ( 11010 PWs)   bands (ev):

   -29.4071 -29.3055 -29.2923 -29.2745 -29.2699 -29.2410 -29.2253 -29.2012
   -29.1871 -29.1132 -10.0129  -9.1712  -4.5748  -3.1375  -2.5199   0.5828
     2.4196   2.9128   5.7588   5.9351

     occupation numbers 
     1.0000   1.0000   1.0000   1.0000   1.0000   1.0000   1.0000   1.0000
     1.0000   1.0000   1.0000   1.0000   1.0000   1.0000   1.0000   0.0000
     0.0000   0.0000   0.0000   0.0000

          k = 0.3333 0.5774 0.0000 ( 10959 PWs)   bands (ev):

   -29.4070 -29.2922 -29.2888 -29.2888 -29.2570 -29.2570 -29.2231 -29.1947
   -29.1947 -29.1138  -9.5820  -9.5820  -4.7004  -2.8186  -2.8186   0.4338
     2.7476   2.7476   5.7348   6.6860

     occupation numbers 
     1.0000   1.0000   1.0000   1.0000   1.0000   1.0000   1.0000   1.0000
     1.0000   1.0000   1.0000   1.0000   1.0000   1.0000   1.0000   0.0000
     0.0000   0.0000   0.0000   0.0000

     highest occupied, lowest unoccupied level (ev):    -0.7824    0.3086

!    total energy              =    -369.10336992 Ry
     estimated scf accuracy    <          1.6E-10 Ry

     The total energy is the sum of the following terms:
     one-electron contribution =    -822.11636047 Ry
     hartree contribution      =     416.46031428 Ry
     xc contribution           =     -86.72704328 Ry
     ewald contribution        =     123.27971954 Ry

     convergence has been achieved in   4 iterations

     negative rho (up, down):  3.736E-06 0.000E+00

     Forces acting on atoms (cartesian axes, Ry/au):

     atom    1 type  1   force =     0.00000000    0.00000000   -0.00028892
     atom    2 type  1   force =     0.00000000   -0.00000000    0.00028892
     The non-local contrib.  to forces
     atom    1 type  1   force =     0.00000000   -0.00000000    0.49188892
     atom    2 type  1   force =     0.00000000   -0.00000000   -0.49191062
     The ionic contribution  to forces
     atom    1 type  1   force =    -0.00000001    0.00000001  -37.16922079
     atom    2 type  1   force =     0.00000001   -0.00000001   37.16922079
     The local contribution  to forces
     atom    1 type  1   force =     0.00000000   -0.00000000   36.67554985
     atom    2 type  1   force =     0.00000040   -0.00000023  -36.67560529
     The core correction contribution to forces
     atom    1 type  1   force =     0.00000000   -0.00000000    0.00148023
     atom    2 type  1   force =     0.00000003   -0.00000002   -0.00148180
     The Hubbard contrib.    to forces
     atom    1 type  1   force =     0.00000000    0.00000000    0.00000000
     atom    2 type  1   force =     0.00000000    0.00000000    0.00000000
     The SCF correction term to forces
     atom    1 type  1   force =     0.00000000   -0.00000000    0.00000000
     atom    2 type  1   force =    -0.00000000    0.00000000    0.00006103

     Total force =     0.000289     Total SCF correction =     0.000061
     SCF correction compared to forces is large: reduce conv_thr to get better values


     Computing stress (Cartesian axis) and pressure


     negative rho (up, down):  3.736E-06 0.000E+00
          total   stress  (Ry/bohr**3)                   (kbar)     P=       -0.06
  -0.00000037   0.00000000   0.00000000           -0.06        0.00        0.00
  -0.00000000  -0.00000037   0.00000000           -0.00       -0.06        0.00
   0.00000000  -0.00000000  -0.00000045            0.00       -0.00       -0.07

     kinetic stress (kbar)   4985.55     -0.00      0.00
                                0.00   4985.55      0.00
                                0.00      0.00   5010.91

     local   stress (kbar) -67372.90      0.00     -0.00
                                0.00 -67372.90      0.00
                               -0.00      0.00  68167.57

     nonloc. stress (kbar)     93.43     -0.00      0.00
                               -0.00     93.43     -0.00
                                0.00     -0.00    111.31

     hartree stress (kbar)  36381.11      0.00     -0.00
                                0.00  36381.11     -0.00
                               -0.00     -0.00 -29202.60

     exc-cor stress (kbar)   3017.70      0.00      0.00
                                0.00   3017.70      0.00
                                0.00      0.00   3017.70

     corecor stress (kbar)  -4736.22      0.00      0.00
                                0.00  -4736.22     -0.00
                                0.00     -0.00  -4736.86

     ewald   stress (kbar)  27631.26     -0.00      0.00
                               -0.00  27631.26     -0.00
                                0.00     -0.00 -42368.10

     hubbard stress (kbar)      0.00      0.00      0.00
                                0.00      0.00      0.00
                                0.00      0.00      0.00

     DFT-D   stress (kbar)      0.00      0.00      0.00
                                0.00      0.00      0.00
                                0.00      0.00      0.00

     XDM     stress (kbar)      0.00      0.00      0.00
                                0.00      0.00      0.00
                                0.00      0.00      0.00

     dft-nl  stress (kbar)      0.00      0.00      0.00
                                0.00      0.00      0.00
                                0.00      0.00      0.00

     TS-vdW  stress (kbar)      0.00      0.00      0.00
                                0.00      0.00      0.00
                                0.00      0.00      0.00


     Energy error            =      2.4E-08
     Gradient error          =      2.9E-04
     Cell gradient error     =      3.7E-07


     number of scf cycles    =   3
     number of bfgs steps    =   1

     enthalpy old            =    -369.1033699457 Ry
     enthalpy new            =    -369.1033699216 Ry

     CASE: enthalpy_new > enthalpy_old

     new trust radius        =       0.0001263756 bohr
     new conv_thr            =       0.0000010000 Ry

     new unit-cell volume =   1406.48755 a.u.^3 (   208.41995 Ang^3 )
     density =      0.19139 g/cm^3

CELL_PARAMETERS (alat=  7.56945975)
   0.999983152   0.000000000   0.000000000
  -0.499991576   0.866010813   0.000000000
   0.000000000   0.000000000   3.744770802

ATOMIC_POSITIONS (crystal)
Sb            0.0000000000        0.0000000000        0.5000000000    0   0   0
Sb            0.3333333330        0.6666666670        0.6085250004



     Writing output data file ./tmp/Sb.save/
     NEW-OLD atomic charge density approx. for the potential

     negative rho (up, down):  3.404E-06 0.000E+00
     extrapolated charge   30.00121, renormalised to   30.00000

     total cpu time spent up to now is       60.9 secs

     Self-consistent Calculation

     iteration #  1     ecut=    60.00 Ry     beta= 0.70
     Davidson diagonalization with overlap
     ethr =  1.00E-06,  avg # of iterations =  2.0

     Threshold (ethr) on eigenvalues was too large:
     Diagonalizing with lowered threshold

     Davidson diagonalization with overlap
     ethr =  2.51E-09,  avg # of iterations =  1.0

     negative rho (up, down):  3.670E-06 0.000E+00

     total cpu time spent up to now is       65.6 secs

     End of self-consistent calculation

          k = 0.0000 0.0000 0.0000 ( 11085 PWs)   bands (ev):

   -29.4011 -29.4011 -29.3080 -29.3080 -29.2701 -29.1789 -29.1789 -29.1448
   -29.0876 -29.0876 -12.6434  -7.3856  -1.6761  -0.7700  -0.7700   0.9108
     2.0789   2.0789   3.6046   3.6864

     occupation numbers 
     1.0000   1.0000   1.0000   1.0000   1.0000   1.0000   1.0000   1.0000
     1.0000   1.0000   1.0000   1.0000   1.0000   1.0000   1.0000   0.0000
     0.0000   0.0000   0.0000   0.0000

          k = 0.0000 0.0770 0.0000 ( 11063 PWs)   bands (ev):

   -29.4007 -29.3983 -29.3077 -29.3062 -29.2691 -29.1801 -29.1791 -29.1454
   -29.0909 -29.0877 -12.5919  -7.3750  -1.6479  -1.3397  -0.8967   1.3244
     1.9731   2.1994   3.6803   3.7439

     occupation numbers 
     1.0000   1.0000   1.0000   1.0000   1.0000   1.0000   1.0000   1.0000
     1.0000   1.0000   1.0000   1.0000   1.0000   1.0000   1.0000   0.0000
     0.0000   0.0000   0.0000   0.0000

          k = 0.0000 0.1540 0.0000 ( 11046 PWs)   bands (ev):

   -29.3995 -29.3902 -29.3070 -29.3011 -29.2662 -29.1835 -29.1797 -29.1473
   -29.1006 -29.0882 -12.4384  -7.3571  -2.2984  -1.5751  -1.2015   1.1983
     2.3838   2.4634   3.8520   3.9396

     occupation numbers 
     1.0000   1.0000   1.0000   1.0000   1.0000   1.0000   1.0000   1.0000
     1.0000   1.0000   1.0000   1.0000   1.0000   1.0000   1.0000   0.0000
     0.0000   0.0000   0.0000   0.0000

          k = 0.0000 0.2309 0.0000 ( 11026 PWs)   bands (ev):

   -29.3976 -29.3771 -29.3063 -29.2930 -29.2609 -29.1892 -29.1814 -29.1503
   -29.1157 -29.0889 -12.1860  -7.3800  -3.1902  -1.5624  -1.5036   0.7181
     2.7036   2.7664   3.9959   4.2349

     occupation numbers 
     1.0000   1.0000   1.0000   1.0000   1.0000   1.0000   1.0000   1.0000
     1.0000   1.0000   1.0000   1.0000   1.0000   1.0000   1.0000   0.0000
     0.0000   0.0000   0.0000   0.0000

          k = 0.0000 0.3079 0.0000 ( 11048 PWs)   bands (ev):

   -29.3955 -29.3601 -29.3055 -29.2825 -29.2533 -29.1969 -29.1846 -29.1550
   -29.1341 -29.0898 -11.8419  -7.5298  -3.8430  -1.9014  -1.5393   0.3737
     2.6161   2.8301   4.2381   4.5274

     occupation numbers 
     1.0000   1.0000   1.0000   1.0000   1.0000   1.0000   1.0000   1.0000
     1.0000   1.0000   1.0000   1.0000   1.0000   1.0000   1.0000   0.0000
     0.0000   0.0000   0.0000   0.0000

          k = 0.0000 0.3849 0.0000 ( 11016 PWs)   bands (ev):

   -29.3934 -29.3416 -29.3033 -29.2703 -29.2440 -29.2064 -29.1904 -29.1663
   -29.1479 -29.0907 -11.4213  -7.8785  -4.1547  -2.1781  -1.7869   0.3187
     2.2038   2.8550   4.6046   4.7211

     occupation numbers 
     1.0000   1.0000   1.0000   1.0000   1.0000   1.0000   1.0000   1.0000
     1.0000   1.0000   1.0000   1.0000   1.0000   1.0000   1.0000   0.0000
     0.0000   0.0000   0.0000   0.0000

          k = 0.0000 0.4619 0.0000 ( 11034 PWs)   bands (ev):

   -29.3918 -29.3269 -29.2962 -29.2570 -29.2349 -29.2175 -29.1992 -29.1847
   -29.1522 -29.0914 -10.9634  -8.3699  -4.1676  -2.3714  -2.1651   0.4933
     1.8041   2.8333   4.3885   5.2661

     occupation numbers 
     1.0000   1.0000   1.0000   1.0000   1.0000   1.0000   1.0000   1.0000
     1.0000   1.0000   1.0000   1.0000   1.0000   1.0000   1.0000   0.0000
     0.0000   0.0000   0.0000   0.0000

          k = 0.0000 0.5389 0.0000 ( 11042 PWs)   bands (ev):

   -29.3909 -29.3212 -29.2846 -29.2435 -29.2309 -29.2299 -29.2057 -29.1985
   -29.1536 -29.0918 -10.5906  -8.7903  -4.0639  -2.4704  -2.4629   0.7105
     1.5203   2.8112   4.1686   5.9013

     occupation numbers 
     1.0000   1.0000   1.0000   1.0000   1.0000   1.0000   1.0000   1.0000
     1.0000   1.0000   1.0000   1.0000   1.0000   1.0000   1.0000   0.0000
     0.0000   0.0000   0.0000   0.0000

          k = 0.0667 0.1155 0.0000 ( 11053 PWs)   bands (ev):

   -29.3999 -29.3929 -29.3070 -29.3030 -29.2672 -29.1825 -29.1794 -29.1467
   -29.0974 -29.0881 -12.4894  -7.3605  -2.0104  -1.5973  -1.1736   1.6914
     1.7138   2.5500   3.8308   3.8479

     occupation numbers 
     1.0000   1.0000   1.0000   1.0000   1.0000   1.0000   1.0000   1.0000
     1.0000   1.0000   1.0000   1.0000   1.0000   1.0000   1.0000   0.0000
     0.0000   0.0000   0.0000   0.0000

          k = 0.0667 0.1925 0.0000 ( 11057 PWs)   bands (ev):

   -29.3984 -29.3822 -29.3059 -29.2970 -29.2629 -29.1873 -29.1802 -29.1492
   -29.1098 -29.0887 -12.2863  -7.3615  -2.8350  -1.6223  -1.5041   1.2401
     2.1574   2.9096   3.9945   4.1017

     occupation numbers 
     1.0000   1.0000   1.0000   1.0000   1.0000   1.0000   1.0000   1.0000
     1.0000   1.0000   1.0000   1.0000   1.0000   1.0000   1.0000   0.0000
     0.0000   0.0000   0.0000   0.0000

          k = 0.0667 0.2694 0.0000 ( 11051 PWs)   bands (ev):

   -29.3964 -29.3670 -29.3049 -29.2884 -29.2560 -29.1944 -29.1821 -29.1529
   -29.1267 -29.0896 -11.9875  -7.4446  -3.5562  -2.0352  -1.4723   0.8057
     2.4723   2.9126   4.1478   4.4090

     occupation numbers 
     1.0000   1.0000   1.0000   1.0000   1.0000   1.0000   1.0000   1.0000
     1.0000   1.0000   1.0000   1.0000   1.0000   1.0000   1.0000   0.0000
     0.0000   0.0000   0.0000   0.0000

          k = 0.0667 0.3464 0.0000 ( 11033 PWs)   bands (ev):

   -29.3943 -29.3488 -29.3035 -29.2778 -29.2470 -29.2035 -29.1859 -29.1601
[...]
   -29.4168 -29.4075 -29.3244 -29.3185 -29.2833 -29.2009 -29.1971 -29.1644
   -29.1179 -29.1055 -12.4521  -7.3692  -2.3113  -1.5851  -1.2146   1.1861
     2.3727   2.4509   3.8502   3.9389

     occupation numbers 
     1.0000   1.0000   1.0000   1.0000   1.0000   1.0000   1.0000   1.0000
     1.0000   1.0000   1.0000   1.0000   1.0000   1.0000   1.0000   0.0000
     0.0000   0.0000   0.0000   0.0000

          k = 0.0000 0.2309 0.0000 ( 11026 PWs)   bands (ev):

   -29.4150 -29.3944 -29.3237 -29.3104 -29.2780 -29.2065 -29.1987 -29.1675
   -29.1330 -29.1063 -12.1998  -7.3923  -3.2028  -1.5755  -1.5139   0.7062
     2.6913   2.7558   3.9927   4.2350

     occupation numbers 
     1.0000   1.0000   1.0000   1.0000   1.0000   1.0000   1.0000   1.0000
     1.0000   1.0000   1.0000   1.0000   1.0000   1.0000   1.0000   0.0000
     0.0000   0.0000   0.0000   0.0000

          k = 0.0000 0.3079 0.0000 ( 11048 PWs)   bands (ev):

   -29.4129 -29.3775 -29.3229 -29.2999 -29.2704 -29.2142 -29.2020 -29.1722
   -29.1514 -29.1071 -11.8556  -7.5424  -3.8553  -1.9145  -1.5499   0.3622
     2.6052   2.8181   4.2345   4.5272

     occupation numbers 
     1.0000   1.0000   1.0000   1.0000   1.0000   1.0000   1.0000   1.0000
     1.0000   1.0000   1.0000   1.0000   1.0000   1.0000   1.0000   0.0000
     0.0000   0.0000   0.0000   0.0000

          k =-0.0000 0.3849 0.0000 ( 11016 PWs)   bands (ev):

   -29.4108 -29.3589 -29.3207 -29.2877 -29.2612 -29.2238 -29.2077 -29.1835
   -29.1651 -29.1080 -11.4351  -7.8915  -4.1667  -2.1912  -1.7980   0.3075
     2.1928   2.8431   4.5989   4.7181

     occupation numbers 
     1.0000   1.0000   1.0000   1.0000   1.0000   1.0000   1.0000   1.0000
     1.0000   1.0000   1.0000   1.0000   1.0000   1.0000   1.0000   0.0000
     0.0000   0.0000   0.0000   0.0000

          k = 0.0000 0.4619 0.0000 ( 11034 PWs)   bands (ev):

   -29.4092 -29.3444 -29.3134 -29.2745 -29.2522 -29.2349 -29.2164 -29.2019
   -29.1694 -29.1087 -10.9771  -8.3833  -4.1794  -2.3845  -2.1764   0.4820
     1.7934   2.8216   4.3805   5.2629

     occupation numbers 
     1.0000   1.0000   1.0000   1.0000   1.0000   1.0000   1.0000   1.0000
     1.0000   1.0000   1.0000   1.0000   1.0000   1.0000   1.0000   0.0000
     0.0000   0.0000   0.0000   0.0000

          k =-0.0000 0.5389 0.0000 ( 11042 PWs)   bands (ev):

   -29.4083 -29.3386 -29.3018 -29.2611 -29.2483 -29.2471 -29.2230 -29.2156
   -29.1708 -29.1091 -10.6043  -8.8037  -4.0757  -2.4835  -2.4742   0.6986
     1.5101   2.7995   4.1603   5.8975

     occupation numbers 
     1.0000   1.0000   1.0000   1.0000   1.0000   1.0000   1.0000   1.0000
     1.0000   1.0000   1.0000   1.0000   1.0000   1.0000   1.0000   0.0000
     0.0000   0.0000   0.0000   0.0000

          k = 0.0667 0.1155 0.0000 ( 11053 PWs)   bands (ev):

   -29.4172 -29.4102 -29.3244 -29.3204 -29.2843 -29.1998 -29.1967 -29.1638
   -29.1147 -29.1054 -12.5032  -7.3726  -2.0233  -1.6073  -1.1867   1.6794
     1.7016   2.5381   3.8266   3.8498

     occupation numbers 
     1.0000   1.0000   1.0000   1.0000   1.0000   1.0000   1.0000   1.0000
     1.0000   1.0000   1.0000   1.0000   1.0000   1.0000   1.0000   0.0000
     0.0000   0.0000   0.0000   0.0000

          k = 0.0667 0.1925 0.0000 ( 11057 PWs)   bands (ev):

   -29.4157 -29.3995 -29.3233 -29.3144 -29.2800 -29.2047 -29.1976 -29.1663
   -29.1271 -29.1061 -12.3001  -7.3737  -2.8478  -1.6350  -1.5146   1.2281
     2.1454   2.8986   3.9926   4.1001

     occupation numbers 
     1.0000   1.0000   1.0000   1.0000   1.0000   1.0000   1.0000   1.0000
     1.0000   1.0000   1.0000   1.0000   1.0000   1.0000   1.0000   0.0000
     0.0000   0.0000   0.0000   0.0000

          k = 0.0667 0.2694 0.0000 ( 11051 PWs)   bands (ev):

   -29.4138 -29.3844 -29.3223 -29.3058 -29.2732 -29.2117 -29.1994 -29.1701
   -29.1440 -29.1070 -12.0012  -7.4571  -3.5687  -2.0483  -1.4828   0.7940
     2.4606   2.9015   4.1442   4.4089

     occupation numbers 
     1.0000   1.0000   1.0000   1.0000   1.0000   1.0000   1.0000   1.0000
     1.0000   1.0000   1.0000   1.0000   1.0000   1.0000   1.0000   0.0000
     0.0000   0.0000   0.0000   0.0000

          k = 0.0667 0.3464 0.0000 ( 11033 PWs)   bands (ev):

   -29.4117 -29.3662 -29.3209 -29.2952 -29.2642 -29.2208 -29.2032 -29.1773
   -29.1612 -29.1079 -11.6168  -7.7095  -4.0242  -2.3930  -1.5943   0.5644
     2.5281   2.5953   4.4748   4.7072

     occupation numbers 
     1.0000   1.0000   1.0000   1.0000   1.0000   1.0000   1.0000   1.0000
     1.0000   1.0000   1.0000   1.0000   1.0000   1.0000   1.0000   0.0000
     0.0000   0.0000   0.0000   0.0000

          k = 0.0667 0.4234 0.0000 ( 11031 PWs)   bands (ev):

   -29.4098 -29.3485 -29.3168 -29.2830 -29.2543 -29.2316 -29.2098 -29.1939
   -29.1691 -29.1088 -11.1702  -8.1461  -4.1694  -2.6304  -1.9028   0.6150
     2.0811   2.6224   4.6112   5.0262

     occupation numbers 
     1.0000   1.0000   1.0000   1.0000   1.0000   1.0000   1.0000   1.0000
     1.0000   1.0000   1.0000   1.0000   1.0000   1.0000   1.0000   0.0000
     0.0000   0.0000   0.0000   0.0000

          k = 0.0667 0.5004 0.0000 ( 11032 PWs)   bands (ev):

   -29.4086 -29.3382 -29.3063 -29.2702 -29.2482 -29.2421 -29.2192 -29.2102
   -29.1715 -29.1094 -10.7280  -8.6361  -4.1181  -2.7302  -2.2838   0.8528
     1.6709   2.6361   4.3289   5.6425

     occupation numbers 
     1.0000   1.0000   1.0000   1.0000   1.0000   1.0000   1.0000   1.0000
     1.0000   1.0000   1.0000   1.0000   1.0000   1.0000   1.0000   0.0000
     0.0000   0.0000   0.0000   0.0000

          k = 0.0667 0.5774 0.0000 ( 11054 PWs)   bands (ev):

   -29.4081 -29.3358 -29.2981 -29.2588 -29.2570 -29.2437 -29.2209 -29.2191
   -29.1722 -29.1097 -10.5019  -8.8881  -4.0641  -2.7010  -2.5116   1.0651
     1.4166   2.6447   4.1935   6.2571

     occupation numbers 
     1.0000   1.0000   1.0000   1.0000   1.0000   1.0000   1.0000   1.0000
     1.0000   1.0000   1.0000   1.0000   1.0000   1.0000   1.0000   0.0000
     0.0000   0.0000   0.0000   0.0000

          k = 0.1333 0.2309 0.0000 ( 11073 PWs)   bands (ev):

   -29.4141 -29.3867 -29.3212 -29.3090 -29.2739 -29.2113 -29.1982 -29.1695
   -29.1413 -29.1070 -12.0501  -7.4320  -3.3829  -2.2429  -1.4699   1.3301
     2.0064   3.0653   4.2500   4.2568

     occupation numbers 
     1.0000   1.0000   1.0000   1.0000   1.0000   1.0000   1.0000   1.0000
     1.0000   1.0000   1.0000   1.0000   1.0000   1.0000   1.0000   0.0000
     0.0000   0.0000   0.0000   0.0000

          k = 0.1333 0.3079 0.0000 ( 11041 PWs)   bands (ev):

   -29.4122 -29.3699 -29.3189 -29.3018 -29.2650 -29.2203 -29.1997 -29.1750
   -29.1583 -29.1082 -11.7091  -7.6160  -3.8001  -2.7730  -1.4990   1.1314
     2.0800   2.9751   4.4424   4.6245

     occupation numbers 
     1.0000   1.0000   1.0000   1.0000   1.0000   1.0000   1.0000   1.0000
     1.0000   1.0000   1.0000   1.0000   1.0000   1.0000   1.0000   0.0000
     0.0000   0.0000   0.0000   0.0000

          k = 0.1333 0.3849 0.0000 ( 11035 PWs)   bands (ev):

   -29.4104 -29.3511 -29.3162 -29.2923 -29.2545 -29.2312 -29.2031 -29.1882
   -29.1700 -29.1094 -11.2914  -7.9732  -4.0280  -3.1106  -1.6976   1.0103
     2.0436   2.7407   4.7712   4.9752

     occupation numbers 
     1.0000   1.0000   1.0000   1.0000   1.0000   1.0000   1.0000   1.0000
     1.0000   1.0000   1.0000   1.0000   1.0000   1.0000   1.0000   0.0000
     0.0000   0.0000   0.0000   0.0000

          k = 0.1333 0.4619 0.0000 ( 11026 PWs)   bands (ev):

   -29.4089 -29.3356 -29.3094 -29.2810 -29.2467 -29.2414 -29.2115 -29.2051
   -29.1741 -29.1104 -10.8329  -8.4517  -4.1092  -3.2056  -2.0564   1.0701
     1.9230   2.5370   4.6851   5.4663

     occupation numbers 
     1.0000   1.0000   1.0000   1.0000   1.0000   1.0000   1.0000   1.0000
     1.0000   1.0000   1.0000   1.0000   1.0000   1.0000   1.0000   0.0000
     0.0000   0.0000   0.0000   0.0000

          k = 0.1333 0.5389 0.0000 ( 11029 PWs)   bands (ev):

   -29.4081 -29.3297 -29.2970 -29.2696 -29.2582 -29.2382 -29.2226 -29.2131
   -29.1756 -29.1109 -10.4501  -8.8680  -4.1391  -3.0876  -2.4225   1.1944
     1.8032   2.4374   4.4536   6.1347

     occupation numbers 
     1.0000   1.0000   1.0000   1.0000   1.0000   1.0000   1.0000   1.0000
     1.0000   1.0000   1.0000   1.0000   1.0000   1.0000   1.0000   0.0000
     0.0000   0.0000   0.0000   0.0000

          k = 0.2000 0.3464 0.0000 ( 11017 PWs)   bands (ev):

   -29.4106 -29.3520 -29.3147 -29.2969 -29.2544 -29.2312 -29.2003 -29.1862
   -29.1705 -29.1097 -11.3327  -7.9095  -3.8536  -3.4250  -1.6255   1.3896
     1.6249   3.1288   4.7943   4.9349

     occupation numbers 
     1.0000   1.0000   1.0000   1.0000   1.0000   1.0000   1.0000   1.0000
     1.0000   1.0000   1.0000   1.0000   1.0000   1.0000   1.0000   0.0000
     0.0000   0.0000   0.0000   0.0000

          k = 0.2000 0.4234 0.0000 ( 11025 PWs)   bands (ev):

   -29.4092 -29.3332 -29.3101 -29.2891 -29.2452 -29.2423 -29.2055 -29.2018
   -29.1769 -29.1112 -10.8916  -8.3298  -3.9923  -3.6331  -1.8977   1.1881
     1.6998   3.0772   5.0953   5.4029

     occupation numbers 
     1.0000   1.0000   1.0000   1.0000   1.0000   1.0000   1.0000   1.0000
     1.0000   1.0000   1.0000   1.0000   1.0000   1.0000   1.0000   0.0000
     0.0000   0.0000   0.0000   0.0000

          k = 0.2000 0.5004 0.0000 ( 11031 PWs)   bands (ev):

   -29.4082 -29.3212 -29.2999 -29.2788 -29.2586 -29.2343 -29.2237 -29.2056
   -29.1803 -29.1122 -10.4397  -8.7945  -4.2698  -3.3731  -2.2674   0.9453
     2.0404   2.8119   5.0026   5.9929

     occupation numbers 
     1.0000   1.0000   1.0000   1.0000   1.0000   1.0000   1.0000   1.0000
     1.0000   1.0000   1.0000   1.0000   1.0000   1.0000   1.0000   0.0000
     0.0000   0.0000   0.0000   0.0000

          k = 0.2000 0.5774 0.0000 ( 11040 PWs)   bands (ev):

   -29.4078 -29.3188 -29.2888 -29.2726 -29.2685 -29.2377 -29.2259 -29.2083
   -29.1814 -29.1126 -10.1882  -9.0554  -4.3661  -3.1670  -2.5099   0.8645
     2.4007   2.4726   4.9089   6.2989

     occupation numbers 
     1.0000   1.0000   1.0000   1.0000   1.0000   1.0000   1.0000   1.0000
     1.0000   1.0000   1.0000   1.0000   1.0000   1.0000   1.0000   0.0000
     0.0000   0.0000   0.0000   0.0000

          k = 0.2667 0.4619 0.0000 ( 11009 PWs)   bands (ev):

   -29.4082 -29.3149 -29.3045 -29.2820 -29.2588 -29.2328 -29.2241 -29.2018
   -29.1830 -29.1127 -10.4408  -8.7555  -4.3385  -3.4669  -2.1901   0.8247
     2.0134   3.1438   5.7011   5.8528

     occupation numbers 
     1.0000   1.0000   1.0000   1.0000   1.0000   1.0000   1.0000   1.0000
     1.0000   1.0000   1.0000   1.0000   1.0000   1.0000   1.0000   0.0000
     0.0000   0.0000   0.0000   0.0000

          k = 0.2667 0.5389 0.0000 ( 11010 PWs)   bands (ev):

   -29.4076 -29.3060 -29.2928 -29.2750 -29.2704 -29.2414 -29.2258 -29.2016
   -29.1875 -29.1137 -10.0137  -9.1721  -4.5757  -3.1384  -2.5209   0.5818
     2.4185   2.9118   5.7574   5.9335

     occupation numbers 
     1.0000   1.0000   1.0000   1.0000   1.0000   1.0000   1.0000   1.0000
     1.0000   1.0000   1.0000   1.0000   1.0000   1.0000   1.0000   0.0000
     0.0000   0.0000   0.0000   0.0000

          k = 0.3333 0.5774 0.0000 ( 10959 PWs)   bands (ev):

   -29.4075 -29.2927 -29.2903 -29.2883 -29.2584 -29.2565 -29.2236 -29.1956
   -29.1945 -29.1142  -9.5835  -9.5821  -4.7012  -2.8197  -2.8192   0.4327
     2.7463   2.7467   5.7330   6.6837

     occupation numbers 
     1.0000   1.0000   1.0000   1.0000   1.0000   1.0000   1.0000   1.0000
     1.0000   1.0000   1.0000   1.0000   1.0000   1.0000   1.0000   0.0000
     0.0000   0.0000   0.0000   0.0000

     highest occupied, lowest unoccupied level (ev):    -0.7832    0.3075

!    total energy              =    -369.10336931 Ry
     estimated scf accuracy    <       0.00000084 Ry

     The total energy is the sum of the following terms:
     one-electron contribution =    -822.11503588 Ry
     hartree contribution      =     416.45894394 Ry
     xc contribution           =     -86.72699692 Ry
     ewald contribution        =     123.27971954 Ry

     convergence has been achieved in   7 iterations

     negative rho (up, down):  3.736E-06 0.000E+00

     Forces acting on atoms (cartesian axes, Ry/au):

     atom    1 type  1   force =     0.00000000    0.00000000   -0.00083027
     atom    2 type  1   force =     0.00000000   -0.00000000    0.00083027
     The non-local contrib.  to forces
     atom    1 type  1   force =     0.00000000    0.00000000    0.49298651
     atom    2 type  1   force =     0.00000000    0.00000000   -0.49081940
     The ionic contribution  to forces
     atom    1 type  1   force =    -0.00000001    0.00000001  -37.16922079
     atom    2 type  1   force =     0.00000001   -0.00000001   37.16922079
     The local contribution  to forces
     atom    1 type  1   force =    -0.00000000   -0.00000000   36.67256800
     atom    2 type  1   force =     0.00000040   -0.00000023  -36.67915021
     The core correction contribution to forces
     atom    1 type  1   force =    -0.00000000    0.00000000    0.00153653
     atom    2 type  1   force =     0.00000003   -0.00000002   -0.00151428
     The Hubbard contrib.    to forces
     atom    1 type  1   force =     0.00000000    0.00000000    0.00000000
     atom    2 type  1   force =     0.00000000    0.00000000    0.00000000
     The SCF correction term to forces
     atom    1 type  1   force =     0.00000000   -0.00000000    0.00000000
     atom    2 type  1   force =    -0.00000000    0.00000000    0.00441627

     Total force =     0.000830     Total SCF correction =     0.004416
     SCF correction compared to forces is large: reduce conv_thr to get better values


     Computing stress (Cartesian axis) and pressure


     negative rho (up, down):  3.736E-06 0.000E+00
          total   stress  (Ry/bohr**3)                   (kbar)     P=       -0.07
  -0.00000042  -0.00000000   0.00000000           -0.06       -0.00        0.00
   0.00000000  -0.00000042   0.00000000            0.00       -0.06        0.00
   0.00000000  -0.00000000  -0.00000058            0.00       -0.00       -0.09

     kinetic stress (kbar)   4985.52     -0.00      0.00
                               -0.00   4985.52     -0.00
                                0.00     -0.00   5010.87

     local   stress (kbar) -67372.76      0.00     -0.00
                                0.00 -67372.76      0.00
                               -0.00      0.00  68167.48

     nonloc. stress (kbar)     93.44     -0.00      0.00
                                0.00     93.44      0.00
                                0.00      0.00    111.31

     hartree stress (kbar)  36380.99     -0.00     -0.00
                               -0.00  36380.99     -0.00
                               -0.00     -0.00 -29202.50

     exc-cor stress (kbar)   3017.70      0.00      0.00
                                0.00   3017.70      0.00
                                0.00      0.00   3017.70

     corecor stress (kbar)  -4736.22      0.00      0.00
                                0.00  -4736.22     -0.00
                                0.00     -0.00  -4736.86

     ewald   stress (kbar)  27631.26     -0.00      0.00
                               -0.00  27631.26     -0.00
                                0.00     -0.00 -42368.10

     hubbard stress (kbar)      0.00      0.00      0.00
                                0.00      0.00      0.00
                                0.00      0.00      0.00

     DFT-D   stress (kbar)      0.00      0.00      0.00
                                0.00      0.00      0.00
                                0.00      0.00      0.00

     XDM     stress (kbar)      0.00      0.00      0.00
                                0.00      0.00      0.00
                                0.00      0.00      0.00

     dft-nl  stress (kbar)      0.00      0.00      0.00
                                0.00      0.00      0.00
                                0.00      0.00      0.00

     TS-vdW  stress (kbar)      0.00      0.00      0.00
                                0.00      0.00      0.00
                                0.00      0.00      0.00



     Writing output data file ./tmp/Sb.save/

     init_run     :      3.53s CPU      3.75s WALL (       2 calls)
     electrons    :     83.74s CPU     92.22s WALL (       7 calls)
     update_pot   :      5.93s CPU      5.99s WALL (       5 calls)
     forces       :      6.87s CPU      7.38s WALL (       7 calls)
     stress       :     22.80s CPU     24.04s WALL (       7 calls)

     Called by init_run:
     wfcinit      :      1.23s CPU      1.30s WALL (       2 calls)
     wfcinit:atom :      0.02s CPU      0.02s WALL (      54 calls)
     wfcinit:wfcr :      1.18s CPU      1.25s WALL (      54 calls)
     potinit      :      0.58s CPU      0.60s WALL (       2 calls)
     hinit0       :      1.34s CPU      1.35s WALL (       2 calls)

     Called by electrons:
     c_bands      :     64.08s CPU     69.13s WALL (      33 calls)
     sum_band     :     15.55s CPU     17.89s WALL (      33 calls)
     v_of_rho     :      0.34s CPU      0.39s WALL (      35 calls)
     v_h          :      0.17s CPU      0.19s WALL (      35 calls)
     v_xc         :      0.28s CPU      0.32s WALL (      49 calls)
     newd         :      4.26s CPU      5.56s WALL (      35 calls)
     mix_rho      :      0.19s CPU      0.22s WALL (      33 calls)

     Called by c_bands:
     init_us_2    :      0.89s CPU      1.10s WALL (    2214 calls)
     cegterg      :     62.27s CPU     67.22s WALL (     891 calls)

     Called by sum_band:
     sum_band:wei :      0.00s CPU      0.00s WALL (      33 calls)
     sum_band:loo :     10.98s CPU     11.50s WALL (      33 calls)
     sum_band:buf :      0.10s CPU      0.10s WALL (     891 calls)
     sum_band:ini :      0.36s CPU      0.47s WALL (     891 calls)
     sum_band:cal :      1.01s CPU      1.20s WALL (     891 calls)
     sum_band:bec :      0.01s CPU      0.01s WALL (     891 calls)
     addusdens    :      4.12s CPU      5.91s WALL (      33 calls)
     addusd:skk   :      0.01s CPU      0.02s WALL (      33 calls)
     addusd:dgemm :      0.58s CPU      1.73s WALL (      33 calls)
     addusd:qvan2 :      3.15s CPU      3.51s WALL (      33 calls)

     Called by *egterg:
     cdiaghg      :      0.96s CPU      1.10s WALL (    3269 calls)
     cegterg:over :      3.67s CPU      4.39s WALL (    2648 calls)
     cegterg:upda :      1.64s CPU      2.06s WALL (    2648 calls)
     cegterg:last :      2.75s CPU      3.30s WALL (    1810 calls)
     h_psi        :     50.61s CPU     52.80s WALL (    3593 calls)
     s_psi        :      1.66s CPU      2.12s WALL (    3593 calls)
     g_psi        :      0.11s CPU      0.12s WALL (    2648 calls)

     Called by h_psi:
     h_psi:calbec :      3.36s CPU      3.99s WALL (    3593 calls)
     vloc_psi     :     45.04s CPU     45.96s WALL (    3593 calls)
     add_vuspsi   :      1.98s CPU      2.52s WALL (    3593 calls)

     General routines
     calbec       :      5.28s CPU      6.24s WALL (    5429 calls)
     fft          :      1.04s CPU      1.12s WALL (     262 calls)
     ffts         :      0.05s CPU      0.06s WALL (      68 calls)
     fftw         :     50.68s CPU     51.75s WALL (  114062 calls)
     interpolate  :      0.16s CPU      0.19s WALL (      35 calls)

     Parallel routines
     fft_scatt_xy :      4.71s CPU      4.88s WALL (  114392 calls)
     fft_scatt_yz :      6.32s CPU      6.57s WALL (  114392 calls)

     PWSCF        :   2m 3.66s CPU   2m14.46s WALL


   This run was terminated on:  15:21: 6  30Apr2026            

=------------------------------------------------------------------------------=
   JOB DONE.
=------------------------------------------------------------------------------=
Note: The following floating-point exceptions are signalling: IEEE_INVALID_FLAG IEEE_DIVIDE_BY_ZERO IEEE_UNDERFLOW_FLAG
