
     Program PWSCF v.6.7MaX starts on 30Apr2026 at 15: 2:13 

     This program is part of the open-source Quantum ESPRESSO suite
     for quantum simulation of materials; please cite
         "P. Giannozzi et al., J. Phys.:Condens. Matter 21 395502 (2009);
         "P. Giannozzi et al., J. Phys.:Condens. Matter 29 465901 (2017);
          URL http://www.quantum-espresso.org", 
     in publications or presentations arising from this work. More details at
     http://www.quantum-espresso.org/quote

     Parallel version (MPI & OpenMP), running on       4 processor cores
     Number of MPI processes:                 4
     Threads/MPI process:                     1

     MPI processes distributed on     1 nodes
     R & G space division:  proc/nbgrp/npool/nimage =       4
     Waiting for input...
     Reading input from standard input

     Current dimensions of program PWSCF are:
     Max number of different atomic species (ntypx) = 10
     Max number of k-points (npk) =  40000
     Max angular momentum in pseudopotentials (lmaxx) =  3

     Subspace diagonalization in iterative solution of the eigenvalue problem:
     a serial algorithm will be used


     Parallelization info
     --------------------
     sticks:   dense  smooth     PW     G-vecs:    dense   smooth      PW
     Min         595     238     66                87501    22156    3391
     Max         596     239     69                87512    22167    3393
     Sum        2383     955    271               350027    88657   13569



     bravais-lattice index     =            4
     lattice parameter (alat)  =       7.5778  a.u.
     unit-cell volume          =    1409.6368 (a.u.)^3
     number of atoms/cell      =            2
     number of atomic types    =            1
     number of electrons       =        30.00
     number of Kohn-Sham states=           20
     kinetic-energy cutoff     =      60.0000  Ry
     charge density cutoff     =     600.0000  Ry
     scf convergence threshold =      1.0E-06
     mixing beta               =       0.7000
     number of iterations used =            8  plain     mixing
     energy convergence thresh.=      1.0E-04
     force convergence thresh. =      1.0E-03
     press convergence thresh. =      1.0E-03
     Exchange-correlation=  SLA  PZ   NOGX NOGC
                           (   1   1   0   0   0   0   0)
     nstep                     =           50


     celldm(1)=   7.577802  celldm(2)=   0.000000  celldm(3)=   3.740648
     celldm(4)=   0.000000  celldm(5)=   0.000000  celldm(6)=   0.000000

     crystal axes: (cart. coord. in units of alat)
               a(1) = (   1.000000   0.000000   0.000000 )  
               a(2) = (  -0.500000   0.866025   0.000000 )  
               a(3) = (   0.000000   0.000000   3.740648 )  

     reciprocal axes: (cart. coord. in units 2 pi/alat)
               b(1) = (  1.000000  0.577350 -0.000000 )  
               b(2) = (  0.000000  1.154701  0.000000 )  
               b(3) = (  0.000000 -0.000000  0.267333 )  


     PseudoPot. # 1 for Sb read from file:
     /Users/cdhogan/Research/Codes/espresso/PSEUDO/GBRV-LDA-1.5/sb_lda_v1.4.uspp.F.UPF
     MD5 check sum: 3d1f43858b4404e985453f13816be267
     Pseudo is Ultrasoft + core correction, Zval = 15.0
     Generated by new atomic code, or converted to UPF format
     Using radial grid of  891 points,  6 beta functions with: 
                l(1) =   0
                l(2) =   0
                l(3) =   1
                l(4) =   1
                l(5) =   2
                l(6) =   2
     Q(r) pseudized with  8 coefficients,  rinner =    1.350   1.350   1.350
                                                       1.350   1.350

     atomic species   valence    mass     pseudopotential
        Sb            15.00    12.01100     Sb( 1.00)

      6 Sym. Ops. (no inversion) found


                                    s                        frac. trans.

      isym =  1     identity                                     

 cryst.   s( 1) = (     1          0          0      )
                  (     0          1          0      )
                  (     0          0          1      )

 cart.    s( 1) = (  1.0000000  0.0000000  0.0000000 )
                  (  0.0000000  1.0000000  0.0000000 )
                  (  0.0000000  0.0000000  1.0000000 )


      isym =  2     120 deg rotation - cryst. axis [0,0,1]       

 cryst.   s( 2) = (     0          1          0      )
                  (    -1         -1          0      )
                  (     0          0          1      )

 cart.    s( 2) = ( -0.5000000 -0.8660254  0.0000000 )
                  (  0.8660254 -0.5000000  0.0000000 )
                  (  0.0000000  0.0000000  1.0000000 )


      isym =  3     120 deg rotation - cryst. axis [0,0,-1]      

 cryst.   s( 3) = (    -1         -1          0      )
                  (     1          0          0      )
                  (     0          0          1      )

 cart.    s( 3) = ( -0.5000000  0.8660254  0.0000000 )
                  ( -0.8660254 -0.5000000  0.0000000 )
                  (  0.0000000  0.0000000  1.0000000 )


      isym =  4     inv. 180 deg rotation - cart. axis [1,0,0]   

 cryst.   s( 4) = (    -1          0          0      )
                  (     1          1          0      )
                  (     0          0          1      )

 cart.    s( 4) = ( -1.0000000  0.0000000  0.0000000 )
                  (  0.0000000  1.0000000  0.0000000 )
                  (  0.0000000  0.0000000  1.0000000 )


      isym =  5     inv. 180 deg rotation - cryst. axis [0,1,0]  

 cryst.   s( 5) = (     1          1          0      )
                  (     0         -1          0      )
                  (     0          0          1      )

 cart.    s( 5) = (  0.5000000  0.8660254  0.0000000 )
                  (  0.8660254 -0.5000000  0.0000000 )
                  (  0.0000000  0.0000000  1.0000000 )


      isym =  6     inv. 180 deg rotation - cryst. axis [1,1,0]  

 cryst.   s( 6) = (     0         -1          0      )
                  (    -1          0          0      )
                  (     0          0          1      )

 cart.    s( 6) = (  0.5000000 -0.8660254  0.0000000 )
                  ( -0.8660254 -0.5000000  0.0000000 )
                  (  0.0000000  0.0000000  1.0000000 )


     point group C_3v (3m)  
     there are  3 classes
     the character table:

       E     2C3   3s_v 
A_1    1.00  1.00  1.00
A_2    1.00  1.00 -1.00
E      2.00 -1.00  0.00

     the symmetry operations in each class and the name of the first element:

     E        1
          identity                                               
     2C3      2    3
          120 deg rotation - cryst. axis [0,0,1]                 
     3s_v     4    5    6
          inv. 180 deg rotation - cart. axis [1,0,0]             

   Cartesian axes

     site n.     atom                  positions (alat units)
         1           Sb  tau(   1) = (   0.0000000   0.0000000   1.8703242  )
         2           Sb  tau(   2) = (  -0.0000000   0.5773503   2.2743142  )

   Crystallographic axes

     site n.     atom                  positions (cryst. coord.)
         1           Sb  tau(   1) = (  0.0000000  0.0000000  0.5000000  )
         2           Sb  tau(   2) = (  0.3333333  0.6666667  0.6080000  )

     number of k points=    12
                       cart. coord. in units 2pi/alat
        k(    1) = (   0.0000000   0.0000000   0.0000000), wk =   0.0246914
        k(    2) = (   0.0000000   0.1283001   0.0000000), wk =   0.1481481
        k(    3) = (   0.0000000   0.2566001   0.0000000), wk =   0.1481481
        k(    4) = (   0.0000000   0.3849002   0.0000000), wk =   0.1481481
        k(    5) = (   0.0000000   0.5132002   0.0000000), wk =   0.1481481
        k(    6) = (   0.1111111   0.1924501   0.0000000), wk =   0.1481481
        k(    7) = (   0.1111111   0.3207501   0.0000000), wk =   0.2962963
        k(    8) = (   0.1111111   0.4490502   0.0000000), wk =   0.2962963
        k(    9) = (   0.1111111   0.5773503   0.0000000), wk =   0.1481481
        k(   10) = (   0.2222222   0.3849002   0.0000000), wk =   0.1481481
        k(   11) = (   0.2222222   0.5132002   0.0000000), wk =   0.2962963
        k(   12) = (   0.3333333   0.5773503   0.0000000), wk =   0.0493827

                       cryst. coord.
        k(    1) = (   0.0000000   0.0000000   0.0000000), wk =   0.0246914
        k(    2) = (   0.0000000   0.1111111   0.0000000), wk =   0.1481481
        k(    3) = (   0.0000000   0.2222222   0.0000000), wk =   0.1481481
        k(    4) = (   0.0000000   0.3333333   0.0000000), wk =   0.1481481
        k(    5) = (   0.0000000   0.4444444   0.0000000), wk =   0.1481481
        k(    6) = (   0.1111111   0.1111111   0.0000000), wk =   0.1481481
        k(    7) = (   0.1111111   0.2222222   0.0000000), wk =   0.2962963
        k(    8) = (   0.1111111   0.3333333   0.0000000), wk =   0.2962963
        k(    9) = (   0.1111111   0.4444444   0.0000000), wk =   0.1481481
        k(   10) = (   0.2222222   0.2222222   0.0000000), wk =   0.1481481
        k(   11) = (   0.2222222   0.3333333   0.0000000), wk =   0.2962963
        k(   12) = (   0.3333333   0.3333333   0.0000000), wk =   0.0493827

     Dense  grid:   350027 G-vectors     FFT dimensions: (  60,  60, 225)

     Smooth grid:    88657 G-vectors     FFT dimensions: (  40,  40, 144)

     Dynamical RAM for                 wfc:       0.84 MB

     Dynamical RAM for     wfc (w. buffer):      10.97 MB

     Dynamical RAM for           str. fact:       1.34 MB

     Dynamical RAM for           local pot:       0.00 MB

     Dynamical RAM for          nlocal pot:       1.52 MB

     Dynamical RAM for                qrad:       3.93 MB

     Dynamical RAM for          rho,v,vnew:       8.70 MB

     Dynamical RAM for               rhoin:       2.90 MB

     Dynamical RAM for            rho*nmix:      21.37 MB

     Dynamical RAM for           G-vectors:       5.18 MB

     Dynamical RAM for          h,s,v(r/c):       0.07 MB

     Dynamical RAM for          <psi|beta>:       0.01 MB

     Dynamical RAM for                 psi:       1.69 MB

     Dynamical RAM for                hpsi:       1.69 MB

     Dynamical RAM for                spsi:       1.69 MB

     Dynamical RAM for      wfcinit/wfcrot:       1.70 MB

     Dynamical RAM for           addusdens:     251.04 MB

     Dynamical RAM for          addusforce:     254.39 MB

     Dynamical RAM for         addusstress:     268.40 MB

     Estimated static dynamical RAM per process >      66.40 MB

     Estimated max dynamical RAM per process >     334.80 MB

     Estimated total dynamical RAM >       1.31 GB

     Initial potential from superposition of free atoms

     starting charge   27.99998, renormalised to   30.00000

     negative rho (up, down):  2.084E-03 0.000E+00
     Starting wfcs are   18 randomized atomic wfcs +    2 random wfcs

     total cpu time spent up to now is        1.6 secs

     Self-consistent Calculation

     iteration #  1     ecut=    60.00 Ry     beta= 0.70
     Davidson diagonalization with overlap
     ethr =  1.00E-02,  avg # of iterations =  7.3

     negative rho (up, down):  4.225E-05 0.000E+00

     total cpu time spent up to now is        3.2 secs

     total energy              =    -368.22070201 Ry
     estimated scf accuracy    <       2.27840851 Ry

     iteration #  2     ecut=    60.00 Ry     beta= 0.70
     Davidson diagonalization with overlap
     ethr =  7.59E-03,  avg # of iterations =  2.6

     negative rho (up, down):  2.115E-06 0.000E+00

     total cpu time spent up to now is        4.5 secs

     total energy              =    -369.01426562 Ry
     estimated scf accuracy    <       0.43114865 Ry

     iteration #  3     ecut=    60.00 Ry     beta= 0.70
     Davidson diagonalization with overlap
     ethr =  1.44E-03,  avg # of iterations =  2.5

     total cpu time spent up to now is        5.7 secs

     total energy              =    -369.10190629 Ry
     estimated scf accuracy    <       0.00695412 Ry

     iteration #  4     ecut=    60.00 Ry     beta= 0.70
     Davidson diagonalization with overlap
     ethr =  2.32E-05,  avg # of iterations =  6.9

     negative rho (up, down):  1.346E-07 0.000E+00

     total cpu time spent up to now is        7.4 secs

     total energy              =    -369.10306665 Ry
     estimated scf accuracy    <       0.00042958 Ry

     iteration #  5     ecut=    60.00 Ry     beta= 0.70
     Davidson diagonalization with overlap
     ethr =  1.43E-06,  avg # of iterations =  7.0

     negative rho (up, down):  1.408E-06 0.000E+00

     total cpu time spent up to now is        8.8 secs

     total energy              =    -369.10300046 Ry
     estimated scf accuracy    <       0.00127018 Ry

     iteration #  6     ecut=    60.00 Ry     beta= 0.70
     Davidson diagonalization with overlap
     ethr =  1.43E-06,  avg # of iterations =  3.8

     negative rho (up, down):  2.473E-06 0.000E+00

     total cpu time spent up to now is       10.3 secs

     total energy              =    -369.10315731 Ry
     estimated scf accuracy    <       0.00002179 Ry

     iteration #  7     ecut=    60.00 Ry     beta= 0.70
     Davidson diagonalization with overlap
     ethr =  7.26E-08,  avg # of iterations =  2.0

     negative rho (up, down):  3.615E-06 0.000E+00

     total cpu time spent up to now is       11.9 secs

     End of self-consistent calculation

          k = 0.0000 0.0000 0.0000 ( 11133 PWs)   bands (ev):

   -29.4352 -29.4352 -29.3414 -29.3414 -29.3025 -29.2109 -29.2109 -29.1768
   -29.1192 -29.1192 -12.6785  -7.3911  -1.6760  -0.8268  -0.8268   0.8542
     2.0383   2.0383   3.5926   3.6828

     occupation numbers 
     1.0000   1.0000   1.0000   1.0000   1.0000   1.0000   1.0000   1.0000
     1.0000   1.0000   1.0000   1.0000   1.0000   1.0000   1.0000   0.0000
     0.0000   0.0000   0.0000   0.0000

          k = 0.0000 0.1283 0.0000 ( 11102 PWs)   bands (ev):

   -29.4341 -29.4275 -29.3406 -29.3365 -29.2999 -29.2141 -29.2114 -29.1786
   -29.1284 -29.1197 -12.5361  -7.3693  -2.0275  -1.6037  -1.1437   1.2909
     2.1446   2.3326   3.7825   3.8452

     occupation numbers 
     1.0000   1.0000   1.0000   1.0000   1.0000   1.0000   1.0000   1.0000
     1.0000   1.0000   1.0000   1.0000   1.0000   1.0000   1.0000   0.0000
     0.0000   0.0000   0.0000   0.0000

          k = 0.0000 0.2566 0.0000 ( 11052 PWs)   bands (ev):

   -29.4311 -29.4057 -29.3394 -29.3230 -29.2912 -29.2237 -29.2142 -29.1839
   -29.1534 -29.1209 -12.1172  -7.4265  -3.4822  -1.7337  -1.5033   0.5472
     2.7303   2.7428   4.0415   4.3243

     occupation numbers 
     1.0000   1.0000   1.0000   1.0000   1.0000   1.0000   1.0000   1.0000
     1.0000   1.0000   1.0000   1.0000   1.0000   1.0000   1.0000   0.0000
     0.0000   0.0000   0.0000   0.0000

          k = 0.0000 0.3849 0.0000 ( 11028 PWs)   bands (ev):

   -29.4276 -29.3752 -29.3365 -29.3033 -29.2767 -29.2388 -29.2223 -29.1993
   -29.1792 -29.1224 -11.4590  -7.9077  -4.1800  -2.2299  -1.8011   0.2971
     2.1814   2.8343   4.5950   4.7106

     occupation numbers 
     1.0000   1.0000   1.0000   1.0000   1.0000   1.0000   1.0000   1.0000
     1.0000   1.0000   1.0000   1.0000   1.0000   1.0000   1.0000   0.0000
     0.0000   0.0000   0.0000   0.0000

          k = 0.0000 0.5132 0.0000 ( 11058 PWs)   bands (ev):

   -29.4253 -29.3556 -29.3213 -29.2808 -29.2636 -29.2583 -29.2367 -29.2280
   -29.1848 -29.1234 -10.7295  -8.7139  -4.1152  -2.4994  -2.4007   0.6159
     1.5875   2.7998   4.2123   5.6821

     occupation numbers 
     1.0000   1.0000   1.0000   1.0000   1.0000   1.0000   1.0000   1.0000
     1.0000   1.0000   1.0000   1.0000   1.0000   1.0000   1.0000   0.0000
     0.0000   0.0000   0.0000   0.0000

          k = 0.1111 0.1925 0.0000 ( 11091 PWs)   bands (ev):

   -29.4321 -29.4126 -29.3385 -29.3290 -29.2938 -29.2213 -29.2122 -29.1822
   -29.1454 -29.1207 -12.2551  -7.3830  -3.0373  -1.8891  -1.4962   1.4015
     1.9166   2.9834   4.0888   4.1028

     occupation numbers 
     1.0000   1.0000   1.0000   1.0000   1.0000   1.0000   1.0000   1.0000
     1.0000   1.0000   1.0000   1.0000   1.0000   1.0000   1.0000   0.0000
     0.0000   0.0000   0.0000   0.0000

          k = 0.1111 0.3208 0.0000 ( 11059 PWs)   bands (ev):

   -29.4289 -29.3854 -29.3354 -29.3158 -29.2803 -29.2353 -29.2152 -29.1910
   -29.1733 -29.1225 -11.7118  -7.6483  -3.8912  -2.6945  -1.5199   0.9329
     2.2435   2.8204   4.4217   4.6603

     occupation numbers 
     1.0000   1.0000   1.0000   1.0000   1.0000   1.0000   1.0000   1.0000
     1.0000   1.0000   1.0000   1.0000   1.0000   1.0000   1.0000   0.0000
     0.0000   0.0000   0.0000   0.0000

          k = 0.1111 0.4491 0.0000 ( 11053 PWs)   bands (ev):

   -29.4260 -29.3561 -29.3280 -29.2972 -29.2635 -29.2541 -29.2249 -29.2179
   -29.1866 -29.1243 -10.9774  -8.3664  -4.1346  -3.0629  -2.0033   0.9432
     1.9868   2.4879   4.6410   5.3030

     occupation numbers 
     1.0000   1.0000   1.0000   1.0000   1.0000   1.0000   1.0000   1.0000
     1.0000   1.0000   1.0000   1.0000   1.0000   1.0000   1.0000   0.0000
     0.0000   0.0000   0.0000   0.0000

          k = 0.1111 0.5774 0.0000 ( 11074 PWs)   bands (ev):

   -29.4249 -29.3476 -29.3117 -29.2778 -29.2766 -29.2552 -29.2380 -29.2316
   -29.1887 -29.1250 -10.4578  -8.9403  -4.1142  -2.9701  -2.5036   1.3139
     1.4999   2.4844   4.3142   6.4430

     occupation numbers 
     1.0000   1.0000   1.0000   1.0000   1.0000   1.0000   1.0000   1.0000
     1.0000   1.0000   1.0000   1.0000   1.0000   1.0000   1.0000   0.0000
     0.0000   0.0000   0.0000   0.0000

          k = 0.2222 0.3849 0.0000 ( 11049 PWs)   bands (ev):

   -29.4265 -29.3552 -29.3273 -29.3085 -29.2623 -29.2548 -29.2157 -29.2140
   -29.1896 -29.1252 -11.0723  -8.1915  -3.8061  -3.8019  -1.7878   1.3529
     1.5469   3.1605   5.0154   5.2346

     occupation numbers 
     1.0000   1.0000   1.0000   1.0000   1.0000   1.0000   1.0000   1.0000
     1.0000   1.0000   1.0000   1.0000   1.0000   1.0000   1.0000   0.0000
     0.0000   0.0000   0.0000   0.0000

          k = 0.2222 0.5132 0.0000 ( 11061 PWs)   bands (ev):

   -29.4248 -29.3318 -29.3126 -29.2932 -29.2787 -29.2486 -29.2432 -29.2194
   -29.1971 -29.1273 -10.3259  -8.9409  -4.4031  -3.3279  -2.3534   0.8193
     2.1670   2.8702   5.1838   6.1154

     occupation numbers 
     1.0000   1.0000   1.0000   1.0000   1.0000   1.0000   1.0000   1.0000
     1.0000   1.0000   1.0000   1.0000   1.0000   1.0000   1.0000   0.0000
     0.0000   0.0000   0.0000   0.0000

          k = 0.3333 0.5774 0.0000 ( 11028 PWs)   bands (ev):

   -29.4243 -29.3080 -29.3048 -29.3044 -29.2738 -29.2734 -29.2386 -29.2099
   -29.2096 -29.1288  -9.6089  -9.6088  -4.7263  -2.8269  -2.8269   0.4398
     2.7514   2.7515   5.7252   6.6485

     occupation numbers 
     1.0000   1.0000   1.0000   1.0000   1.0000   1.0000   1.0000   1.0000
     1.0000   1.0000   1.0000   1.0000   1.0000   1.0000   1.0000   0.0000
     0.0000   0.0000   0.0000   0.0000

     highest occupied, lowest unoccupied level (ev):    -0.8268    0.2971

!    total energy              =    -369.10316109 Ry
     estimated scf accuracy    <       0.00000013 Ry

     The total energy is the sum of the following terms:
     one-electron contribution =    -821.97947202 Ry
     hartree contribution      =     416.37388623 Ry
     xc contribution           =     -86.72850669 Ry
     ewald contribution        =     123.23093138 Ry

     convergence has been achieved in   7 iterations

     negative rho (up, down):  3.615E-06 0.000E+00

     Forces acting on atoms (cartesian axes, Ry/au):

     atom    1 type  1   force =     0.00000000    0.00000000   -0.00224977
     atom    2 type  1   force =     0.00000000    0.00000000    0.00224977
     The non-local contrib.  to forces
     atom    1 type  1   force =     0.00000000    0.00000000    0.49800547
     atom    2 type  1   force =     0.00000000   -0.00000000   -0.49798234
     The ionic contribution  to forces
     atom    1 type  1   force =    -0.00000001    0.00000001  -37.02870924
     atom    2 type  1   force =     0.00000001   -0.00000001   37.02870924
     The local contribution  to forces
     atom    1 type  1   force =    -0.00000000   -0.00000000   36.52767093
     atom    2 type  1   force =     0.00000040   -0.00000023  -36.52662065
     The core correction contribution to forces
     atom    1 type  1   force =    -0.00000000    0.00000000    0.00155260
     atom    2 type  1   force =     0.00000003   -0.00000002   -0.00155667
     The Hubbard contrib.    to forces
     atom    1 type  1   force =     0.00000000    0.00000000    0.00000000
     atom    2 type  1   force =     0.00000000    0.00000000    0.00000000
     The SCF correction term to forces
     atom    1 type  1   force =     0.00000000   -0.00000000   -0.00000000
     atom    2 type  1   force =    -0.00000000    0.00000000   -0.00062452

     Total force =     0.002250     Total SCF correction =     0.000625
     SCF correction compared to forces is large: reduce conv_thr to get better values


     Computing stress (Cartesian axis) and pressure


     negative rho (up, down):  3.615E-06 0.000E+00
          total   stress  (Ry/bohr**3)                   (kbar)     P=        0.13
  -0.00000038   0.00000000   0.00000000           -0.06        0.00        0.00
  -0.00000000  -0.00000038   0.00000000           -0.00       -0.06        0.00
   0.00000000   0.00000000   0.00000337            0.00        0.00        0.50

     kinetic stress (kbar)   4973.91      0.00      0.00
                                0.00   4973.91      0.00
                                0.00      0.00   5000.41

     local   stress (kbar) -67205.83      0.00     -0.00
                                0.00 -67205.83      0.00
                               -0.00      0.00  67998.80

     nonloc. stress (kbar)     93.52      0.00      0.00
                                0.00     93.52      0.00
                                0.00      0.00    111.19

     hartree stress (kbar)  36287.97      0.00      0.00
                                0.00  36287.97     -0.00
                                0.00     -0.00 -29124.52

     exc-cor stress (kbar)   3010.79      0.00      0.00
                                0.00   3010.79      0.00
                                0.00      0.00   3010.79

     corecor stress (kbar)  -4725.44      0.00      0.00
                                0.00  -4725.44     -0.00
                                0.00     -0.00  -4726.08

     ewald   stress (kbar)  27565.04     -0.00      0.00
                               -0.00  27565.04     -0.00
                                0.00     -0.00 -42270.10

     hubbard stress (kbar)      0.00      0.00      0.00
                                0.00      0.00      0.00
                                0.00      0.00      0.00

     DFT-D   stress (kbar)      0.00      0.00      0.00
                                0.00      0.00      0.00
                                0.00      0.00      0.00

     XDM     stress (kbar)      0.00      0.00      0.00
                                0.00      0.00      0.00
                                0.00      0.00      0.00

     dft-nl  stress (kbar)      0.00      0.00      0.00
                                0.00      0.00      0.00
                                0.00      0.00      0.00

     TS-vdW  stress (kbar)      0.00      0.00      0.00
                                0.00      0.00      0.00
                                0.00      0.00      0.00



     BFGS Geometry Optimization
     Energy error            =      0.0E+00
     Gradient error          =      2.2E-03
     Cell gradient error     =      3.8E-07


     number of scf cycles    =   1
     number of bfgs steps    =   0

     enthalpy new            =    -369.1031610943 Ry

     new trust radius        =       0.0022497694 bohr
     new conv_thr            =       0.0000010000 Ry

     new unit-cell volume =   1409.61012 a.u.^3 (   208.88267 Ang^3 )
     density =      0.19097 g/cm^3

CELL_PARAMETERS (alat=  7.57780176)
   0.999990528  -0.000000000   0.000000000
  -0.499995264   0.866017200   0.000000000
   0.000000000   0.000000000   3.740648379

ATOMIC_POSITIONS (crystal)
Sb            0.0000000000        0.0000000000        0.5000000000    0   0   0
Sb            0.3333333330        0.6666666670        0.6080793684



     Writing output data file ./tmp/Sb.save/
     NEW-OLD atomic charge density approx. for the potential

     negative rho (up, down):  1.525E-05 0.000E+00
     extrapolated charge   29.99947, renormalised to   30.00000

     total cpu time spent up to now is       18.2 secs

     Self-consistent Calculation

     iteration #  1     ecut=    60.00 Ry     beta= 0.70
     Davidson diagonalization with overlap
     ethr =  1.00E-06,  avg # of iterations =  2.3

     Threshold (ethr) on eigenvalues was too large:
     Diagonalizing with lowered threshold

     Davidson diagonalization with overlap
     ethr =  8.60E-09,  avg # of iterations =  3.0

     negative rho (up, down):  5.109E-06 0.000E+00

     total cpu time spent up to now is       21.5 secs

     total energy              =    -369.10316462 Ry
     estimated scf accuracy    <       0.00000263 Ry

     iteration #  2     ecut=    60.00 Ry     beta= 0.70
     Davidson diagonalization with overlap
     ethr =  8.77E-09,  avg # of iterations =  2.2

     negative rho (up, down):  3.805E-06 0.000E+00

     total cpu time spent up to now is       23.3 secs

     total energy              =    -369.10316241 Ry
     estimated scf accuracy    <       0.00003444 Ry

     iteration #  3     ecut=    60.00 Ry     beta= 0.70
     Davidson diagonalization with overlap
     ethr =  8.77E-09,  avg # of iterations =  2.0

     negative rho (up, down):  3.581E-06 0.000E+00

     total cpu time spent up to now is       24.7 secs

     End of self-consistent calculation

          k = 0.0000 0.0000 0.0000 ( 11133 PWs)   bands (ev):

   -29.4297 -29.4297 -29.3360 -29.3360 -29.2976 -29.2059 -29.2059 -29.1721
   -29.1144 -29.1144 -12.6708  -7.3898  -1.6753  -0.8192  -0.8192   0.8605
     2.0430   2.0430   3.5959   3.6843

     occupation numbers 
     1.0000   1.0000   1.0000   1.0000   1.0000   1.0000   1.0000   1.0000
     1.0000   1.0000   1.0000   1.0000   1.0000   1.0000   1.0000   0.0000
     0.0000   0.0000   0.0000   0.0000

          k = 0.0000 0.1283 0.0000 ( 11102 PWs)   bands (ev):

   -29.4286 -29.4220 -29.3353 -29.3312 -29.2950 -29.2092 -29.2065 -29.1739
   -29.1236 -29.1149 -12.5285  -7.3679  -2.0200  -1.6028  -1.1361   1.2961
     2.1491   2.3368   3.7858   3.8473

     occupation numbers 
     1.0000   1.0000   1.0000   1.0000   1.0000   1.0000   1.0000   1.0000
     1.0000   1.0000   1.0000   1.0000   1.0000   1.0000   1.0000   0.0000
     0.0000   0.0000   0.0000   0.0000

          k = 0.0000 0.2566 0.0000 ( 11052 PWs)   bands (ev):

   -29.4256 -29.4002 -29.3341 -29.3177 -29.2862 -29.2187 -29.2093 -29.1791
   -29.1486 -29.1161 -12.1097  -7.4243  -3.4754  -1.7260  -1.5020   0.5513
     2.7331   2.7459   4.0444   4.3262

     occupation numbers 
     1.0000   1.0000   1.0000   1.0000   1.0000   1.0000   1.0000   1.0000
     1.0000   1.0000   1.0000   1.0000   1.0000   1.0000   1.0000   0.0000
     0.0000   0.0000   0.0000   0.0000

          k = 0.0000 0.3849 0.0000 ( 11028 PWs)   bands (ev):

   -29.4221 -29.3698 -29.3312 -29.2981 -29.2717 -29.2337 -29.2174 -29.1943
   -29.1745 -29.1176 -11.4516  -7.9034  -4.1749  -2.2222  -1.7990   0.3003
     2.1843   2.8360   4.5967   4.7130

     occupation numbers 
     1.0000   1.0000   1.0000   1.0000   1.0000   1.0000   1.0000   1.0000
     1.0000   1.0000   1.0000   1.0000   1.0000   1.0000   1.0000   0.0000
     0.0000   0.0000   0.0000   0.0000

          k = 0.0000 0.5132 0.0000 ( 11058 PWs)   bands (ev):

   -29.4198 -29.3503 -29.3161 -29.2757 -29.2586 -29.2532 -29.2318 -29.2230
   -29.1801 -29.1186 -10.7223  -8.7081  -4.1114  -2.4916  -2.3983   0.6203
     1.5885   2.8012   4.2140   5.6841

     occupation numbers 
     1.0000   1.0000   1.0000   1.0000   1.0000   1.0000   1.0000   1.0000
     1.0000   1.0000   1.0000   1.0000   1.0000   1.0000   1.0000   0.0000
     0.0000   0.0000   0.0000   0.0000

          k = 0.1111 0.1925 0.0000 ( 11091 PWs)   bands (ev):

   -29.4266 -29.4072 -29.3331 -29.3237 -29.2888 -29.2163 -29.2073 -29.1775
   -29.1406 -29.1159 -12.2476  -7.3810  -3.0300  -1.8818  -1.4950   1.4050
     1.9214   2.9859   4.0910   4.1067

     occupation numbers 
     1.0000   1.0000   1.0000   1.0000   1.0000   1.0000   1.0000   1.0000
     1.0000   1.0000   1.0000   1.0000   1.0000   1.0000   1.0000   0.0000
     0.0000   0.0000   0.0000   0.0000

          k = 0.1111 0.3208 0.0000 ( 11059 PWs)   bands (ev):

   -29.4234 -29.3800 -29.3301 -29.3106 -29.2753 -29.2302 -29.2102 -29.1861
   -29.1685 -29.1177 -11.7044  -7.6449  -3.8852  -2.6873  -1.5180   0.9356
     2.2458   2.8236   4.4245   4.6629

     occupation numbers 
     1.0000   1.0000   1.0000   1.0000   1.0000   1.0000   1.0000   1.0000
     1.0000   1.0000   1.0000   1.0000   1.0000   1.0000   1.0000   0.0000
     0.0000   0.0000   0.0000   0.0000

          k = 0.1111 0.4491 0.0000 ( 11053 PWs)   bands (ev):

   -29.4205 -29.3508 -29.3228 -29.2920 -29.2585 -29.2491 -29.2200 -29.2129
   -29.1819 -29.1195 -10.9701  -8.3611  -4.1300  -3.0561  -2.0006   0.9452
     1.9895   2.4899   4.6431   5.3051

     occupation numbers 
     1.0000   1.0000   1.0000   1.0000   1.0000   1.0000   1.0000   1.0000
     1.0000   1.0000   1.0000   1.0000   1.0000   1.0000   1.0000   0.0000
     0.0000   0.0000   0.0000   0.0000

          k = 0.1111 0.5774 0.0000 ( 11074 PWs)   bands (ev):

   -29.4194 -29.3423 -29.3065 -29.2727 -29.2715 -29.2501 -29.2330 -29.2268
   -29.1840 -29.1202 -10.4507  -8.9342  -4.1097  -2.9635  -2.5010   1.3145
     1.5046   2.4851   4.3165   6.4452

     occupation numbers 
     1.0000   1.0000   1.0000   1.0000   1.0000   1.0000   1.0000   1.0000
     1.0000   1.0000   1.0000   1.0000   1.0000   1.0000   1.0000   0.0000
     0.0000   0.0000   0.0000   0.0000

          k = 0.2222 0.3849 0.0000 ( 11049 PWs)   bands (ev):

   -29.4210 -29.3499 -29.3221 -29.3033 -29.2572 -29.2497 -29.2108 -29.2089
   -29.1849 -29.1204 -11.0650  -8.1866  -3.8015  -3.7947  -1.7853   1.3544
     1.5479   3.1631   5.0208   5.2370

     occupation numbers 
     1.0000   1.0000   1.0000   1.0000   1.0000   1.0000   1.0000   1.0000
     1.0000   1.0000   1.0000   1.0000   1.0000   1.0000   1.0000   0.0000
     0.0000   0.0000   0.0000   0.0000

          k = 0.2222 0.5132 0.0000 ( 11061 PWs)   bands (ev):

   -29.4193 -29.3265 -29.3074 -29.2880 -29.2736 -29.2435 -29.2381 -29.2145
   -29.1923 -29.1225 -10.3189  -8.9349  -4.3962  -3.3238  -2.3505   0.8205
     2.1675   2.8717   5.1884   6.1176

     occupation numbers 
     1.0000   1.0000   1.0000   1.0000   1.0000   1.0000   1.0000   1.0000
     1.0000   1.0000   1.0000   1.0000   1.0000   1.0000   1.0000   0.0000
     0.0000   0.0000   0.0000   0.0000

          k = 0.3333 0.5774 0.0000 ( 11028 PWs)   bands (ev):

   -29.4188 -29.3029 -29.2996 -29.2991 -29.2687 -29.2683 -29.2336 -29.2051
   -29.2048 -29.1240  -9.6024  -9.6021  -4.7191  -2.8237  -2.8236   0.4410
     2.7514   2.7515   5.7273   6.6536

     occupation numbers 
     1.0000   1.0000   1.0000   1.0000   1.0000   1.0000   1.0000   1.0000
     1.0000   1.0000   1.0000   1.0000   1.0000   1.0000   1.0000   0.0000
     0.0000   0.0000   0.0000   0.0000

     highest occupied, lowest unoccupied level (ev):    -0.8192    0.3003

!    total energy              =    -369.10316646 Ry
     estimated scf accuracy    <       0.00000020 Ry

     The total energy is the sum of the following terms:
     one-electron contribution =    -821.82312065 Ry
     hartree contribution      =     416.29498988 Ry
     xc contribution           =     -86.72765739 Ry
     ewald contribution        =     123.15262170 Ry

     convergence has been achieved in   3 iterations

     negative rho (up, down):  3.581E-06 0.000E+00

     Forces acting on atoms (cartesian axes, Ry/au):

     atom    1 type  1   force =     0.00000000    0.00000000   -0.00117354
     atom    2 type  1   force =     0.00000000    0.00000000    0.00117354
     The non-local contrib.  to forces
     atom    1 type  1   force =    -0.00000000   -0.00000000    0.49750397
     atom    2 type  1   force =    -0.00000000   -0.00000000   -0.49784766
     The ionic contribution  to forces
     atom    1 type  1   force =    -0.00000001    0.00000001  -37.03478301
     atom    2 type  1   force =     0.00000001   -0.00000001   37.03478301
     The local contribution  to forces
     atom    1 type  1   force =    -0.00000000   -0.00000000   36.53318469
     atom    2 type  1   force =     0.00000040   -0.00000023  -36.53223285
     The core correction contribution to forces
     atom    1 type  1   force =     0.00000000   -0.00000000    0.00143721
     atom    2 type  1   force =     0.00000003   -0.00000002   -0.00147506
     The Hubbard contrib.    to forces
     atom    1 type  1   force =     0.00000000    0.00000000    0.00000000
     atom    2 type  1   force =     0.00000000    0.00000000    0.00000000
     The SCF correction term to forces
     atom    1 type  1   force =    -0.00000000    0.00000000    0.00000000
     atom    2 type  1   force =     0.00000000   -0.00000000   -0.00235770

     Total force =     0.001174     Total SCF correction =     0.002358
     SCF correction compared to forces is large: reduce conv_thr to get better values


     Computing stress (Cartesian axis) and pressure


     negative rho (up, down):  3.581E-06 0.000E+00
          total   stress  (Ry/bohr**3)                   (kbar)     P=       -0.86
  -0.00000671   0.00000000   0.00000000           -0.99        0.00        0.00
   0.00000000  -0.00000671   0.00000000            0.00       -0.99        0.00
  -0.00000000  -0.00000000  -0.00000415           -0.00       -0.00       -0.61

     kinetic stress (kbar)   4974.04      0.00      0.00
                                0.00   4974.04      0.00
                                0.00      0.00   5000.32

     local   stress (kbar) -67187.64      0.00     -0.00
                                0.00 -67187.64      0.00
                               -0.00      0.00  67977.46

     nonloc. stress (kbar)     92.57     -0.00      0.00
                               -0.00     92.57      0.00
                                0.00      0.00    110.26

     hartree stress (kbar)  36279.47     -0.00      0.00
                               -0.00  36279.47     -0.00
                                0.00     -0.00 -29114.94

     exc-cor stress (kbar)   3010.86      0.00      0.00
                                0.00   3010.86      0.00
                                0.00      0.00   3010.86

     corecor stress (kbar)  -4725.53      0.00      0.00
                                0.00  -4725.53     -0.00
                                0.00     -0.00  -4726.16

     ewald   stress (kbar)  27555.23     -0.00      0.00
                               -0.00  27555.23     -0.00
                                0.00     -0.00 -42258.41

     hubbard stress (kbar)      0.00      0.00      0.00
                                0.00      0.00      0.00
                                0.00      0.00      0.00

     DFT-D   stress (kbar)      0.00      0.00      0.00
                                0.00      0.00      0.00
                                0.00      0.00      0.00

     XDM     stress (kbar)      0.00      0.00      0.00
                                0.00      0.00      0.00
                                0.00      0.00      0.00

     dft-nl  stress (kbar)      0.00      0.00      0.00
                                0.00      0.00      0.00
                                0.00      0.00      0.00

     TS-vdW  stress (kbar)      0.00      0.00      0.00
                                0.00      0.00      0.00
                                0.00      0.00      0.00


     Energy error            =      5.4E-06
     Gradient error          =      1.2E-03
     Cell gradient error     =      6.7E-06


     number of scf cycles    =   2
     number of bfgs steps    =   1

     enthalpy old            =    -369.1031610943 Ry
     enthalpy new            =    -369.1031664551 Ry

     CASE: enthalpy_new < enthalpy_old

     new trust radius        =       0.0024747464 bohr
     new conv_thr            =       0.0000000100 Ry

     new unit-cell volume =   1409.30730 a.u.^3 (   208.83780 Ang^3 )
     density =      0.19101 g/cm^3

CELL_PARAMETERS (alat=  7.57780176)
   0.999883111   0.000000000   0.000000000
  -0.499941556   0.865924175   0.000000000
   0.000000000   0.000000000   3.740648379

ATOMIC_POSITIONS (crystal)
Sb            0.0000000000        0.0000000000        0.5000000000    0   0   0
Sb            0.3333333330        0.6666666670        0.6081666737



     Writing output data file ./tmp/Sb.save/
     NEW-OLD atomic charge density approx. for the potential

     negative rho (up, down):  1.812E-05 0.000E+00
     extrapolated charge   29.99398, renormalised to   30.00000

     total cpu time spent up to now is       30.7 secs

     Self-consistent Calculation

     iteration #  1     ecut=    60.00 Ry     beta= 0.70
     Davidson diagonalization with overlap
     ethr =  1.00E-06,  avg # of iterations =  3.0

     Threshold (ethr) on eigenvalues was too large:
     Diagonalizing with lowered threshold

     Davidson diagonalization with overlap
     ethr =  7.71E-08,  avg # of iterations =  1.8

     negative rho (up, down):  6.018E-06 0.000E+00

     total cpu time spent up to now is       33.5 secs

     total energy              =    -369.10313899 Ry
     estimated scf accuracy    <       0.00002371 Ry

     iteration #  2     ecut=    60.00 Ry     beta= 0.70
     Davidson diagonalization with overlap
     ethr =  7.90E-08,  avg # of iterations =  3.4

     negative rho (up, down):  4.101E-06 0.000E+00

     total cpu time spent up to now is       35.1 secs

     total energy              =    -369.10316520 Ry
     estimated scf accuracy    <       0.00006548 Ry

     iteration #  3     ecut=    60.00 Ry     beta= 0.70
     Davidson diagonalization with overlap
     ethr =  7.90E-08,  avg # of iterations =  2.0

     negative rho (up, down):  3.806E-06 0.000E+00

     total cpu time spent up to now is       36.3 secs

     total energy              =    -369.10317121 Ry
     estimated scf accuracy    <       0.00002050 Ry

     iteration #  4     ecut=    60.00 Ry     beta= 0.70
     Davidson diagonalization with overlap
     ethr =  6.83E-08,  avg # of iterations =  1.3

     negative rho (up, down):  3.728E-06 0.000E+00

     total cpu time spent up to now is       37.6 secs

     total energy              =    -369.10317165 Ry
     estimated scf accuracy    <       0.00000478 Ry

     iteration #  5     ecut=    60.00 Ry     beta= 0.70
     Davidson diagonalization with overlap
     ethr =  1.59E-08,  avg # of iterations =  1.0

     negative rho (up, down):  3.670E-06 0.000E+00

     total cpu time spent up to now is       38.9 secs

     total energy              =    -369.10317041 Ry
     estimated scf accuracy    <       0.00000229 Ry

     iteration #  6     ecut=    60.00 Ry     beta= 0.70
     Davidson diagonalization with overlap
     ethr =  7.63E-09,  avg # of iterations =  2.0

     negative rho (up, down):  3.649E-06 0.000E+00

     total cpu time spent up to now is       40.2 secs

     End of self-consistent calculation

          k = 0.0000 0.0000 0.0000 ( 11133 PWs)   bands (ev):

   -29.4297 -29.4297 -29.3362 -29.3362 -29.2979 -29.2064 -29.2064 -29.1725
   -29.1150 -29.1150 -12.6685  -7.3924  -1.6778  -0.8148  -0.8148   0.8645
     2.0448   2.0448   3.5967   3.6849

     occupation numbers 
     1.0000   1.0000   1.0000   1.0000   1.0000   1.0000   1.0000   1.0000
     1.0000   1.0000   1.0000   1.0000   1.0000   1.0000   1.0000   0.0000
     0.0000   0.0000   0.0000   0.0000

          k =-0.0000 0.1283 0.0000 ( 11102 PWs)   bands (ev):

   -29.4286 -29.4221 -29.3355 -29.3314 -29.2953 -29.2097 -29.2070 -29.1744
   -29.1241 -29.1155 -12.5262  -7.3702  -2.0160  -1.6053  -1.1318   1.2983
     2.1511   2.3381   3.7869   3.8482

     occupation numbers 
     1.0000   1.0000   1.0000   1.0000   1.0000   1.0000   1.0000   1.0000
     1.0000   1.0000   1.0000   1.0000   1.0000   1.0000   1.0000   0.0000
     0.0000   0.0000   0.0000   0.0000

          k =-0.0000 0.2566 0.0000 ( 11052 PWs)   bands (ev):

   -29.4256 -29.4003 -29.3343 -29.3179 -29.2865 -29.2191 -29.2097 -29.1796
   -29.1491 -29.1167 -12.1073  -7.4256  -3.4725  -1.7219  -1.5039   0.5521
     2.7332   2.7464   4.0450   4.3270

     occupation numbers 
     1.0000   1.0000   1.0000   1.0000   1.0000   1.0000   1.0000   1.0000
     1.0000   1.0000   1.0000   1.0000   1.0000   1.0000   1.0000   0.0000
     0.0000   0.0000   0.0000   0.0000

          k =-0.0000 0.3849 0.0000 ( 11028 PWs)   bands (ev):

   -29.4221 -29.3699 -29.3315 -29.2984 -29.2720 -29.2341 -29.2179 -29.1946
   -29.1751 -29.1182 -11.4492  -7.9029  -4.1740  -2.2182  -1.8000   0.3002
     2.1841   2.8349   4.5961   4.7135

     occupation numbers 
     1.0000   1.0000   1.0000   1.0000   1.0000   1.0000   1.0000   1.0000
     1.0000   1.0000   1.0000   1.0000   1.0000   1.0000   1.0000   0.0000
     0.0000   0.0000   0.0000   0.0000

          k =-0.0000 0.5133 0.0000 ( 11058 PWs)   bands (ev):

   -29.4198 -29.3504 -29.3163 -29.2760 -29.2589 -29.2535 -29.2323 -29.2232
   -29.1807 -29.1192 -10.7199  -8.7065  -4.1116  -2.4876  -2.3993   0.6215
     1.5864   2.7996   4.2131   5.6842

     occupation numbers 
     1.0000   1.0000   1.0000   1.0000   1.0000   1.0000   1.0000   1.0000
     1.0000   1.0000   1.0000   1.0000   1.0000   1.0000   1.0000   0.0000
     0.0000   0.0000   0.0000   0.0000

          k = 0.1111 0.1925 0.0000 ( 11091 PWs)   bands (ev):

   -29.4266 -29.4072 -29.3333 -29.3239 -29.2892 -29.2167 -29.2078 -29.1779
   -29.1412 -29.1165 -12.2452  -7.3828  -3.0266  -1.8782  -1.4969   1.4055
     1.9234   2.9859   4.0920   4.1081

     occupation numbers 
     1.0000   1.0000   1.0000   1.0000   1.0000   1.0000   1.0000   1.0000
     1.0000   1.0000   1.0000   1.0000   1.0000   1.0000   1.0000   0.0000
     0.0000   0.0000   0.0000   0.0000

          k = 0.1111 0.3208 0.0000 ( 11059 PWs)   bands (ev):

   -29.4234 -29.3801 -29.3303 -29.3108 -29.2756 -29.2307 -29.2107 -29.1864
   -29.1691 -29.1183 -11.7020  -7.6452  -3.8834  -2.6840  -1.5192   0.9352
     2.2452   2.8241   4.4251   4.6640

     occupation numbers 
     1.0000   1.0000   1.0000   1.0000   1.0000   1.0000   1.0000   1.0000
     1.0000   1.0000   1.0000   1.0000   1.0000   1.0000   1.0000   0.0000
     0.0000   0.0000   0.0000   0.0000

          k = 0.1111 0.4491 0.0000 ( 11053 PWs)   bands (ev):

   -29.4206 -29.3509 -29.3231 -29.2923 -29.2588 -29.2494 -29.2205 -29.2131
   -29.1825 -29.1200 -10.9677  -8.3598  -4.1295  -3.0532  -2.0011   0.9441
     1.9891   2.4892   4.6427   5.3052

     occupation numbers 
     1.0000   1.0000   1.0000   1.0000   1.0000   1.0000   1.0000   1.0000
     1.0000   1.0000   1.0000   1.0000   1.0000   1.0000   1.0000   0.0000
     0.0000   0.0000   0.0000   0.0000

          k = 0.1111 0.5774 0.0000 ( 11074 PWs)   bands (ev):

   -29.4194 -29.3425 -29.3067 -29.2730 -29.2718 -29.2505 -29.2332 -29.2272
   -29.1845 -29.1207 -10.4483  -8.9324  -4.1092  -2.9608  -2.5019   1.3119
     1.5064   2.4829   4.3163   6.4457

     occupation numbers 
     1.0000   1.0000   1.0000   1.0000   1.0000   1.0000   1.0000   1.0000
     1.0000   1.0000   1.0000   1.0000   1.0000   1.0000   1.0000   0.0000
     0.0000   0.0000   0.0000   0.0000

          k = 0.2222 0.3849 0.0000 ( 11049 PWs)   bands (ev):

   -29.4210 -29.3501 -29.3223 -29.3035 -29.2576 -29.2501 -29.2113 -29.2092
   -29.1855 -29.1210 -11.0626  -8.1855  -3.8008  -3.7919  -1.7859   1.3527
     1.5459   3.1633   5.0238   5.2373

     occupation numbers 
     1.0000   1.0000   1.0000   1.0000   1.0000   1.0000   1.0000   1.0000
     1.0000   1.0000   1.0000   1.0000   1.0000   1.0000   1.0000   0.0000
     0.0000   0.0000   0.0000   0.0000

          k = 0.2222 0.5133 0.0000 ( 11061 PWs)   bands (ev):

   -29.4193 -29.3268 -29.3076 -29.2882 -29.2739 -29.2438 -29.2384 -29.2150
   -29.1928 -29.1230 -10.3165  -8.9330  -4.3938  -3.3235  -2.3510   0.8182
     2.1651   2.8706   5.1906   6.1180

     occupation numbers 
     1.0000   1.0000   1.0000   1.0000   1.0000   1.0000   1.0000   1.0000
     1.0000   1.0000   1.0000   1.0000   1.0000   1.0000   1.0000   0.0000
     0.0000   0.0000   0.0000   0.0000

          k = 0.3334 0.5774 0.0000 ( 11028 PWs)   bands (ev):

   -29.4188 -29.3032 -29.2997 -29.2997 -29.2687 -29.2687 -29.2339 -29.2054
   -29.2054 -29.1245  -9.6000  -9.6000  -4.7164  -2.8239  -2.8239   0.4385
     2.7487   2.7487   5.7274   6.6568

     occupation numbers 
     1.0000   1.0000   1.0000   1.0000   1.0000   1.0000   1.0000   1.0000
     1.0000   1.0000   1.0000   1.0000   1.0000   1.0000   1.0000   0.0000
     0.0000   0.0000   0.0000   0.0000

     highest occupied, lowest unoccupied level (ev):    -0.8148    0.3002

!    total energy              =    -369.10317086 Ry
     estimated scf accuracy    <          4.8E-09 Ry

     The total energy is the sum of the following terms:
     one-electron contribution =    -821.76394502 Ry
     hartree contribution      =     416.27074277 Ry
     xc contribution           =     -86.72764293 Ry
     ewald contribution        =     123.11767431 Ry

     convergence has been achieved in   6 iterations

     negative rho (up, down):  3.649E-06 0.000E+00

     Forces acting on atoms (cartesian axes, Ry/au):

     atom    1 type  1   force =     0.00000000    0.00000000   -0.00155975
     atom    2 type  1   force =     0.00000000   -0.00000000    0.00155975
     The non-local contrib.  to forces
     atom    1 type  1   force =     0.00000000   -0.00000000    0.49657458
     atom    2 type  1   force =    -0.00000000    0.00000000   -0.49659712
     The ionic contribution  to forces
     atom    1 type  1   force =    -0.00000001    0.00000001  -37.05049753
     atom    2 type  1   force =     0.00000001   -0.00000001   37.05049753
     The local contribution  to forces
     atom    1 type  1   force =    -0.00000000   -0.00000000   36.55062664
     atom    2 type  1   force =     0.00000040   -0.00000023  -36.55060950
     The core correction contribution to forces
     atom    1 type  1   force =     0.00000000   -0.00000000    0.00144328
     atom    2 type  1   force =     0.00000003   -0.00000002   -0.00144410
     The Hubbard contrib.    to forces
     atom    1 type  1   force =     0.00000000    0.00000000    0.00000000
     atom    2 type  1   force =     0.00000000    0.00000000    0.00000000
     The SCF correction term to forces
     atom    1 type  1   force =    -0.00000000    0.00000000    0.00000000
     atom    2 type  1   force =     0.00000000   -0.00000000   -0.00029402

     Total force =     0.001560     Total SCF correction =     0.000294
     SCF correction compared to forces is large: reduce conv_thr to get better values


     Computing stress (Cartesian axis) and pressure


     negative rho (up, down):  3.649E-06 0.000E+00
          total   stress  (Ry/bohr**3)                   (kbar)     P=       -0.06
  -0.00000123  -0.00000000   0.00000000           -0.18       -0.00        0.00
  -0.00000000  -0.00000123   0.00000000           -0.00       -0.18        0.00
   0.00000000   0.00000000   0.00000131            0.00        0.00        0.19

     kinetic stress (kbar)   4975.15     -0.00      0.00
                               -0.00   4975.15     -0.00
                               -0.00      0.00   5001.23

     local   stress (kbar) -67194.16      0.00     -0.00
                                0.00 -67194.16      0.00
                               -0.00      0.00  67982.68

     nonloc. stress (kbar)     93.35     -0.00     -0.00
                               -0.00     93.35      0.00
                                0.00      0.00    110.99

     hartree stress (kbar)  36284.26      0.00      0.00
                                0.00  36284.26     -0.00
                                0.00     -0.00 -29117.70

     exc-cor stress (kbar)   3011.52      0.00      0.00
                                0.00   3011.52      0.00
                                0.00      0.00   3011.52

     corecor stress (kbar)  -4726.54      0.00      0.00
                                0.00  -4726.54     -0.00
                                0.00     -0.00  -4727.18

     ewald   stress (kbar)  27556.25     -0.00      0.00
                               -0.00  27556.25     -0.00
                                0.00     -0.00 -42261.34

     hubbard stress (kbar)      0.00      0.00      0.00
                                0.00      0.00      0.00
                                0.00      0.00      0.00

     DFT-D   stress (kbar)      0.00      0.00      0.00
                                0.00      0.00      0.00
                                0.00      0.00      0.00

     XDM     stress (kbar)      0.00      0.00      0.00
                                0.00      0.00      0.00
                                0.00      0.00      0.00

     dft-nl  stress (kbar)      0.00      0.00      0.00
                                0.00      0.00      0.00
                                0.00      0.00      0.00

     TS-vdW  stress (kbar)      0.00      0.00      0.00
                                0.00      0.00      0.00
                                0.00      0.00      0.00


     Energy error            =      4.4E-06
     Gradient error          =      1.6E-03
     Cell gradient error     =      1.2E-06


     number of scf cycles    =   3
     number of bfgs steps    =   2

     enthalpy old            =    -369.1031664551 Ry
     enthalpy new            =    -369.1031708607 Ry

     CASE: enthalpy_new < enthalpy_old

     new trust radius        =       0.0037121195 bohr
     new conv_thr            =       0.0000000100 Ry

     new unit-cell volume =   1408.96514 a.u.^3 (   208.78709 Ang^3 )
     density =      0.19105 g/cm^3

CELL_PARAMETERS (alat=  7.57780176)
   0.999761724   0.000000000   0.000000000
  -0.499880862   0.865819051   0.000000000
   0.000000000   0.000000000   3.740648379

ATOMIC_POSITIONS (crystal)
Sb            0.0000000000        0.0000000000        0.5000000000    0   0   0
Sb            0.3333333330        0.6666666670        0.6082976317



     Writing output data file ./tmp/Sb.save/
     NEW-OLD atomic charge density approx. for the potential

     negative rho (up, down):  2.941E-05 0.000E+00
     extrapolated charge   29.99320, renormalised to   30.00000

     total cpu time spent up to now is       45.6 secs

     Self-consistent Calculation

     iteration #  1     ecut=    60.00 Ry     beta= 0.70
     Davidson diagonalization with overlap
     ethr =  1.00E-06,  avg # of iterations =  3.0

     negative rho (up, down):  7.967E-06 0.000E+00

     total cpu time spent up to now is       47.2 secs

     total energy              =    -369.10313384 Ry
     estimated scf accuracy    <       0.00003248 Ry

     iteration #  2     ecut=    60.00 Ry     beta= 0.70
     Davidson diagonalization with overlap
     ethr =  1.08E-07,  avg # of iterations =  3.7

     negative rho (up, down):  4.439E-06 0.000E+00

     total cpu time spent up to now is       48.6 secs

     total energy              =    -369.10315263 Ry
     estimated scf accuracy    <       0.00019397 Ry

     iteration #  3     ecut=    60.00 Ry     beta= 0.70
     Davidson diagonalization with overlap
     ethr =  1.08E-07,  avg # of iterations =  2.0

     negative rho (up, down):  3.933E-06 0.000E+00

     total cpu time spent up to now is       49.8 secs

     total energy              =    -369.10317598 Ry
     estimated scf accuracy    <       0.00003514 Ry

     iteration #  4     ecut=    60.00 Ry     beta= 0.70
     Davidson diagonalization with overlap
     ethr =  1.08E-07,  avg # of iterations =  1.5

     negative rho (up, down):  3.817E-06 0.000E+00

     total cpu time spent up to now is       50.9 secs

     total energy              =    -369.10317685 Ry
     estimated scf accuracy    <       0.00000635 Ry

     iteration #  5     ecut=    60.00 Ry     beta= 0.70
     Davidson diagonalization with overlap
     ethr =  2.12E-08,  avg # of iterations =  1.2

     negative rho (up, down):  3.737E-06 0.000E+00

     total cpu time spent up to now is       52.0 secs

     total energy              =    -369.10317558 Ry
     estimated scf accuracy    <       0.00000248 Ry

     iteration #  6     ecut=    60.00 Ry     beta= 0.70
     Davidson diagonalization with overlap
     ethr =  8.26E-09,  avg # of iterations =  2.0

     negative rho (up, down):  3.711E-06 0.000E+00

     total cpu time spent up to now is       53.2 secs

     End of self-consistent calculation

          k = 0.0000 0.0000 0.0000 ( 11133 PWs)   bands (ev):

   -29.4264 -29.4264 -29.3331 -29.3331 -29.2951 -29.2038 -29.2038 -29.1700
   -29.1126 -29.1126 -12.6621  -7.3945  -1.6805  -0.8061  -0.8061   0.8720
     2.0492   2.0492   3.5978   3.6849

     occupation numbers 
     1.0000   1.0000   1.0000   1.0000   1.0000   1.0000   1.0000   1.0000
     1.0000   1.0000   1.0000   1.0000   1.0000   1.0000   1.0000   0.0000
     0.0000   0.0000   0.0000   0.0000

          k =-0.0000 0.1283 0.0000 ( 11102 PWs)   bands (ev):

   -29.4252 -29.4187 -29.3324 -29.3283 -29.2924 -29.2070 -29.2044 -29.1718
   -29.1217 -29.1130 -12.5197  -7.3720  -2.0077  -1.6077  -1.1232   1.3034
     2.1555   2.3417   3.7884   3.8488

     occupation numbers 
     1.0000   1.0000   1.0000   1.0000   1.0000   1.0000   1.0000   1.0000
     1.0000   1.0000   1.0000   1.0000   1.0000   1.0000   1.0000   0.0000
     0.0000   0.0000   0.0000   0.0000

          k =-0.0000 0.2567 0.0000 ( 11052 PWs)   bands (ev):

   -29.4222 -29.3970 -29.3312 -29.3149 -29.2837 -29.2165 -29.2071 -29.1769
   -29.1466 -29.1143 -12.1009  -7.4260  -3.4658  -1.7135  -1.5054   0.5549
     2.7346   2.7484   4.0458   4.3275

     occupation numbers 
     1.0000   1.0000   1.0000   1.0000   1.0000   1.0000   1.0000   1.0000
     1.0000   1.0000   1.0000   1.0000   1.0000   1.0000   1.0000   0.0000
     0.0000   0.0000   0.0000   0.0000

          k =-0.0000 0.3850 0.0000 ( 11028 PWs)   bands (ev):

   -29.4187 -29.3667 -29.3284 -29.2954 -29.2691 -29.2314 -29.2153 -29.1918
   -29.1727 -29.1157 -11.4427  -7.9002  -4.1705  -2.2099  -1.8001   0.3016
     2.1853   2.8346   4.5956   4.7139

     occupation numbers 
     1.0000   1.0000   1.0000   1.0000   1.0000   1.0000   1.0000   1.0000
     1.0000   1.0000   1.0000   1.0000   1.0000   1.0000   1.0000   0.0000
     0.0000   0.0000   0.0000   0.0000

          k =-0.0000 0.5133 0.0000 ( 11058 PWs)   bands (ev):

   -29.4164 -29.3473 -29.3133 -29.2731 -29.2562 -29.2507 -29.2296 -29.2203
   -29.1782 -29.1167 -10.7135  -8.7018  -4.1100  -2.4793  -2.3993   0.6251
     1.5845   2.7986   4.2126   5.6842

     occupation numbers 
     1.0000   1.0000   1.0000   1.0000   1.0000   1.0000   1.0000   1.0000
     1.0000   1.0000   1.0000   1.0000   1.0000   1.0000   1.0000   0.0000
     0.0000   0.0000   0.0000   0.0000

          k = 0.1111 0.1925 0.0000 ( 11091 PWs)   bands (ev):

   -29.4232 -29.4039 -29.3303 -29.3208 -29.2863 -29.2141 -29.2051 -29.1753
   -29.1387 -29.1141 -12.2388  -7.3837  -3.0192  -1.8705  -1.4986   1.4077
     1.9280   2.9870   4.0929   4.1104

     occupation numbers 
     1.0000   1.0000   1.0000   1.0000   1.0000   1.0000   1.0000   1.0000
     1.0000   1.0000   1.0000   1.0000   1.0000   1.0000   1.0000   0.0000
     0.0000   0.0000   0.0000   0.0000

          k = 0.1111 0.3208 0.0000 ( 11059 PWs)   bands (ev):

   -29.4200 -29.3768 -29.3273 -29.3078 -29.2728 -29.2280 -29.2081 -29.1837
   -29.1666 -29.1158 -11.6956  -7.6437  -3.8784  -2.6767  -1.5196   0.9361
     2.2457   2.8263   4.4261   4.6654

     occupation numbers 
     1.0000   1.0000   1.0000   1.0000   1.0000   1.0000   1.0000   1.0000
     1.0000   1.0000   1.0000   1.0000   1.0000   1.0000   1.0000   0.0000
     0.0000   0.0000   0.0000   0.0000

          k = 0.1111 0.4492 0.0000 ( 11053 PWs)   bands (ev):

   -29.4172 -29.3478 -29.3200 -29.2893 -29.2560 -29.2467 -29.2179 -29.2102
   -29.1800 -29.1175 -10.9613  -8.3557  -4.1268  -3.0466  -2.0005   0.9438
     1.9899   2.4893   4.6428   5.3052

     occupation numbers 
     1.0000   1.0000   1.0000   1.0000   1.0000   1.0000   1.0000   1.0000
     1.0000   1.0000   1.0000   1.0000   1.0000   1.0000   1.0000   0.0000
     0.0000   0.0000   0.0000   0.0000

          k = 0.1111 0.5775 0.0000 ( 11074 PWs)   bands (ev):

   -29.4160 -29.3394 -29.3037 -29.2701 -29.2690 -29.2477 -29.2302 -29.2246
   -29.1820 -29.1182 -10.4419  -8.9274  -4.1064  -2.9545  -2.5018   1.3091
     1.5107   2.4807   4.3168   6.4460

     occupation numbers 
     1.0000   1.0000   1.0000   1.0000   1.0000   1.0000   1.0000   1.0000
     1.0000   1.0000   1.0000   1.0000   1.0000   1.0000   1.0000   0.0000
     0.0000   0.0000   0.0000   0.0000

          k = 0.2223 0.3850 0.0000 ( 11049 PWs)   bands (ev):

   -29.4176 -29.3469 -29.3193 -29.3006 -29.2547 -29.2473 -29.2087 -29.2063
   -29.1830 -29.1185 -11.0562  -8.1817  -3.7979  -3.7851  -1.7854   1.3514
     1.5440   3.1648   5.0295   5.2377

     occupation numbers 
     1.0000   1.0000   1.0000   1.0000   1.0000   1.0000   1.0000   1.0000
     1.0000   1.0000   1.0000   1.0000   1.0000   1.0000   1.0000   0.0000
     0.0000   0.0000   0.0000   0.0000

          k = 0.2223 0.5133 0.0000 ( 11061 PWs)   bands (ev):

   -29.4159 -29.3238 -29.3047 -29.2853 -29.2711 -29.2410 -29.2355 -29.2124
   -29.1903 -29.1205 -10.3102  -8.9278  -4.3877  -3.3212  -2.3501   0.8162
     2.1627   2.8701   5.1951   6.1186

     occupation numbers 
     1.0000   1.0000   1.0000   1.0000   1.0000   1.0000   1.0000   1.0000
     1.0000   1.0000   1.0000   1.0000   1.0000   1.0000   1.0000   0.0000
     0.0000   0.0000   0.0000   0.0000

          k = 0.3334 0.5775 0.0000 ( 11028 PWs)   bands (ev):

   -29.4154 -29.3003 -29.2968 -29.2967 -29.2657 -29.2657 -29.2312 -29.2029
   -29.2029 -29.1220  -9.5941  -9.5941  -4.7098  -2.8227  -2.8227   0.4363
     2.7457   2.7457   5.7278   6.6626

     occupation numbers 
     1.0000   1.0000   1.0000   1.0000   1.0000   1.0000   1.0000   1.0000
     1.0000   1.0000   1.0000   1.0000   1.0000   1.0000   1.0000   0.0000
     0.0000   0.0000   0.0000   0.0000

     highest occupied, lowest unoccupied level (ev):    -0.8061    0.3016

!    total energy              =    -369.10317608 Ry
     estimated scf accuracy    <          3.1E-09 Ry

     The total energy is the sum of the following terms:
     one-electron contribution =    -821.62522355 Ry
     hartree contribution      =     416.20481127 Ry
     xc contribution           =     -86.72695665 Ry
     ewald contribution        =     123.04419285 Ry

     convergence has been achieved in   6 iterations

     negative rho (up, down):  3.711E-06 0.000E+00

     Forces acting on atoms (cartesian axes, Ry/au):

     atom    1 type  1   force =     0.00000000    0.00000000   -0.00084119
     atom    2 type  1   force =    -0.00000000    0.00000000    0.00084119
     The non-local contrib.  to forces
     atom    1 type  1   force =    -0.00000000    0.00000000    0.49555972
     atom    2 type  1   force =     0.00000000   -0.00000000   -0.49558220
     The ionic contribution  to forces
     atom    1 type  1   force =    -0.00000001    0.00000001  -37.07030366
     atom    2 type  1   force =     0.00000001   -0.00000001   37.07030366
     The local contribution  to forces
     atom    1 type  1   force =     0.00000000   -0.00000000   36.57223802
     atom    2 type  1   force =     0.00000040   -0.00000023  -36.57218858
     The core correction contribution to forces
     atom    1 type  1   force =     0.00000000   -0.00000000    0.00141057
     atom    2 type  1   force =     0.00000003   -0.00000002   -0.00141540
     The Hubbard contrib.    to forces
     atom    1 type  1   force =     0.00000000    0.00000000    0.00000000
     atom    2 type  1   force =     0.00000000    0.00000000    0.00000000
     The SCF correction term to forces
     atom    1 type  1   force =    -0.00000000    0.00000000    0.00000000
     atom    2 type  1   force =     0.00000000   -0.00000000   -0.00029520

     Total force =     0.000841     Total SCF correction =     0.000295
     SCF correction compared to forces is large: reduce conv_thr to get better values


     Computing stress (Cartesian axis) and pressure


     negative rho (up, down):  3.711E-06 0.000E+00
          total   stress  (Ry/bohr**3)                   (kbar)     P=       -0.12
  -0.00000136   0.00000000   0.00000000           -0.20        0.00        0.00
   0.00000000  -0.00000136  -0.00000000            0.00       -0.20       -0.00
   0.00000000  -0.00000000   0.00000020            0.00       -0.00        0.03

     kinetic stress (kbar)   4976.39      0.00     -0.00
                               -0.00   4976.39      0.00
                               -0.00      0.00   5002.14

     local   stress (kbar) -67192.77      0.00     -0.00
                                0.00 -67192.77      0.00
                               -0.00      0.00  67978.43

     nonloc. stress (kbar)     93.34     -0.00     -0.00
                               -0.00     93.34      0.00
                               -0.00      0.00    110.94

     hartree stress (kbar)  36285.32     -0.00      0.00
                               -0.00  36285.32     -0.00
                                0.00     -0.00 -29116.16

     exc-cor stress (kbar)   3012.27      0.00      0.00
                                0.00   3012.27      0.00
                                0.00      0.00   3012.27

     corecor stress (kbar)  -4727.69      0.00      0.00
                                0.00  -4727.69     -0.00
                                0.00     -0.00  -4728.32

     ewald   stress (kbar)  27552.94     -0.00      0.00
                               -0.00  27552.94     -0.00
                                0.00     -0.00 -42259.27

     hubbard stress (kbar)      0.00      0.00      0.00
                                0.00      0.00      0.00
                                0.00      0.00      0.00

     DFT-D   stress (kbar)      0.00      0.00      0.00
                                0.00      0.00      0.00
                                0.00      0.00      0.00

     XDM     stress (kbar)      0.00      0.00      0.00
                                0.00      0.00      0.00
                                0.00      0.00      0.00

     dft-nl  stress (kbar)      0.00      0.00      0.00
                                0.00      0.00      0.00
                                0.00      0.00      0.00

     TS-vdW  stress (kbar)      0.00      0.00      0.00
                                0.00      0.00      0.00
                                0.00      0.00      0.00


     Energy error            =      5.2E-06
     Gradient error          =      8.4E-04
     Cell gradient error     =      1.4E-06


     number of scf cycles    =   4
     number of bfgs steps    =   3

     enthalpy old            =    -369.1031708607 Ry
     enthalpy new            =    -369.1031760819 Ry

     CASE: enthalpy_new < enthalpy_old

     new trust radius        =       0.0050779566 bohr
     new conv_thr            =       0.0000000100 Ry

     new unit-cell volume =   1408.47597 a.u.^3 (   208.71461 Ang^3 )
     density =      0.19112 g/cm^3

CELL_PARAMETERS (alat=  7.57780176)
   0.999588158   0.000000000   0.000000000
  -0.499794079   0.865668738   0.000000000
   0.000000000   0.000000000   3.740648379

ATOMIC_POSITIONS (crystal)
Sb            0.0000000000        0.0000000000        0.5000000000    0   0   0
Sb            0.3333333330        0.6666666670        0.6084767743



     Writing output data file ./tmp/Sb.save/
     NEW-OLD atomic charge density approx. for the potential

     negative rho (up, down):  4.368E-05 0.000E+00
     extrapolated charge   29.99028, renormalised to   30.00000

     total cpu time spent up to now is       58.5 secs

     Self-consistent Calculation

     iteration #  1     ecut=    60.00 Ry     beta= 0.70
     Davidson diagonalization with overlap
     ethr =  1.00E-06,  avg # of iterations =  3.7

     negative rho (up, down):  1.083E-05 0.000E+00

     total cpu time spent up to now is       60.2 secs

     total energy              =    -369.10309460 Ry
     estimated scf accuracy    <       0.00006413 Ry

     iteration #  2     ecut=    60.00 Ry     beta= 0.70
     Davidson diagonalization with overlap
     ethr =  2.14E-07,  avg # of iterations =  4.4

     negative rho (up, down):  4.940E-06 0.000E+00

     total cpu time spent up to now is       61.8 secs

     total energy              =    -369.10313481 Ry
     estimated scf accuracy    <       0.00037278 Ry

     iteration #  3     ecut=    60.00 Ry     beta= 0.70
     Davidson diagonalization with overlap
     ethr =  2.14E-07,  avg # of iterations =  2.0

     negative rho (up, down):  4.117E-06 0.000E+00

     total cpu time spent up to now is       62.9 secs

     total energy              =    -369.10317912 Ry
     estimated scf accuracy    <       0.00007147 Ry

     iteration #  4     ecut=    60.00 Ry     beta= 0.70
     Davidson diagonalization with overlap
     ethr =  2.14E-07,  avg # of iterations =  1.6

     negative rho (up, down):  3.951E-06 0.000E+00

     total cpu time spent up to now is       64.1 secs

     total energy              =    -369.10318091 Ry
     estimated scf accuracy    <       0.00001308 Ry

     iteration #  5     ecut=    60.00 Ry     beta= 0.70
     Davidson diagonalization with overlap
     ethr =  4.36E-08,  avg # of iterations =  1.2

     negative rho (up, down):  3.852E-06 0.000E+00

     total cpu time spent up to now is       65.2 secs

     total energy              =    -369.10317820 Ry
     estimated scf accuracy    <       0.00000522 Ry

     iteration #  6     ecut=    60.00 Ry     beta= 0.70
     Davidson diagonalization with overlap
     ethr =  1.74E-08,  avg # of iterations =  2.0

     negative rho (up, down):  3.801E-06 0.000E+00

     total cpu time spent up to now is       66.4 secs

     End of self-consistent calculation

          k = 0.0000 0.0000 0.0000 ( 11133 PWs)   bands (ev):

   -29.4214 -29.4214 -29.3285 -29.3285 -29.2908 -29.1999 -29.1999 -29.1661
   -29.1089 -29.1089 -12.6531  -7.3973  -1.6839  -0.7939  -0.7939   0.8827
     2.0556   2.0556   3.5995   3.6849

     occupation numbers 
     1.0000   1.0000   1.0000   1.0000   1.0000   1.0000   1.0000   1.0000
     1.0000   1.0000   1.0000   1.0000   1.0000   1.0000   1.0000   0.0000
     0.0000   0.0000   0.0000   0.0000

          k =-0.0000 0.1284 0.0000 ( 11102 PWs)   bands (ev):

   -29.4202 -29.4138 -29.3278 -29.3237 -29.2882 -29.2031 -29.2004 -29.1679
   -29.1180 -29.1093 -12.5107  -7.3743  -1.9962  -1.6109  -1.1112   1.3107
     2.1618   2.3469   3.7905   3.8499

     occupation numbers 
     1.0000   1.0000   1.0000   1.0000   1.0000   1.0000   1.0000   1.0000
     1.0000   1.0000   1.0000   1.0000   1.0000   1.0000   1.0000   0.0000
     0.0000   0.0000   0.0000   0.0000

          k =-0.0000 0.2567 0.0000 ( 11052 PWs)   bands (ev):

   -29.4172 -29.3921 -29.3266 -29.3103 -29.2794 -29.2124 -29.2032 -29.1730
   -29.1429 -29.1105 -12.0919  -7.4262  -3.4565  -1.7017  -1.5074   0.5591
     2.7370   2.7515   4.0471   4.3283

     occupation numbers 
     1.0000   1.0000   1.0000   1.0000   1.0000   1.0000   1.0000   1.0000
     1.0000   1.0000   1.0000   1.0000   1.0000   1.0000   1.0000   0.0000
     0.0000   0.0000   0.0000   0.0000

          k =-0.0000 0.3851 0.0000 ( 11028 PWs)   bands (ev):

   -29.4138 -29.3620 -29.3239 -29.2909 -29.2649 -29.2273 -29.2113 -29.1875
   -29.1690 -29.1120 -11.4337  -7.8962  -4.1654  -2.1982  -1.8001   0.3038
     2.1872   2.8345   4.5950   4.7146

     occupation numbers 
     1.0000   1.0000   1.0000   1.0000   1.0000   1.0000   1.0000   1.0000
     1.0000   1.0000   1.0000   1.0000   1.0000   1.0000   1.0000   0.0000
     0.0000   0.0000   0.0000   0.0000

          k =-0.0000 0.5134 0.0000 ( 11058 PWs)   bands (ev):

   -29.4115 -29.3427 -29.3088 -29.2688 -29.2520 -29.2465 -29.2256 -29.2159
   -29.1744 -29.1130 -10.7045  -8.6951  -4.1076  -2.4677  -2.3991   0.6301
     1.5822   2.7975   4.2120   5.6842

     occupation numbers 
     1.0000   1.0000   1.0000   1.0000   1.0000   1.0000   1.0000   1.0000
     1.0000   1.0000   1.0000   1.0000   1.0000   1.0000   1.0000   0.0000
     0.0000   0.0000   0.0000   0.0000

          k = 0.1112 0.1925 0.0000 ( 11091 PWs)   bands (ev):

   -29.4182 -29.3990 -29.3257 -29.3163 -29.2821 -29.2101 -29.2012 -29.1714
   -29.1349 -29.1103 -12.2297  -7.3848  -3.0089  -1.8597  -1.5007   1.4111
     1.9346   2.9889   4.0942   4.1138

     occupation numbers 
     1.0000   1.0000   1.0000   1.0000   1.0000   1.0000   1.0000   1.0000
     1.0000   1.0000   1.0000   1.0000   1.0000   1.0000   1.0000   0.0000
     0.0000   0.0000   0.0000   0.0000

          k = 0.1112 0.3209 0.0000 ( 11059 PWs)   bands (ev):

   -29.4151 -29.3721 -29.3228 -29.3033 -29.2685 -29.2239 -29.2042 -29.1796
   -29.1629 -29.1121 -11.6865  -7.6414  -3.8714  -2.6665  -1.5201   0.9375
     2.2466   2.8296   4.4275   4.6673

     occupation numbers 
     1.0000   1.0000   1.0000   1.0000   1.0000   1.0000   1.0000   1.0000
     1.0000   1.0000   1.0000   1.0000   1.0000   1.0000   1.0000   0.0000
     0.0000   0.0000   0.0000   0.0000

          k = 0.1112 0.4492 0.0000 ( 11053 PWs)   bands (ev):

   -29.4122 -29.3431 -29.3156 -29.2849 -29.2518 -29.2425 -29.2139 -29.2059
   -29.1763 -29.1138 -10.9523  -8.3497  -4.1228  -3.0374  -1.9993   0.9435
     1.9914   2.4899   4.6433   5.3053

     occupation numbers 
     1.0000   1.0000   1.0000   1.0000   1.0000   1.0000   1.0000   1.0000
     1.0000   1.0000   1.0000   1.0000   1.0000   1.0000   1.0000   0.0000
     0.0000   0.0000   0.0000   0.0000

          k = 0.1112 0.5776 0.0000 ( 11074 PWs)   bands (ev):

   -29.4111 -29.3348 -29.2993 -29.2659 -29.2647 -29.2435 -29.2258 -29.2206
   -29.1783 -29.1145 -10.4330  -8.9202  -4.1025  -2.9456  -2.5014   1.3056
     1.5169   2.4781   4.3177   6.4466

     occupation numbers 
     1.0000   1.0000   1.0000   1.0000   1.0000   1.0000   1.0000   1.0000
     1.0000   1.0000   1.0000   1.0000   1.0000   1.0000   1.0000   0.0000
     0.0000   0.0000   0.0000   0.0000

          k = 0.2223 0.3851 0.0000 ( 11049 PWs)   bands (ev):

   -29.4126 -29.3423 -29.3148 -29.2961 -29.2505 -29.2432 -29.2047 -29.2020
   -29.1793 -29.1148 -11.0472  -8.1763  -3.7937  -3.7757  -1.7846   1.3499
     1.5417   3.1672   5.0376   5.2382

     occupation numbers 
     1.0000   1.0000   1.0000   1.0000   1.0000   1.0000   1.0000   1.0000
     1.0000   1.0000   1.0000   1.0000   1.0000   1.0000   1.0000   0.0000
     0.0000   0.0000   0.0000   0.0000

          k = 0.2223 0.5134 0.0000 ( 11061 PWs)   bands (ev):

   -29.4109 -29.3193 -29.3003 -29.2808 -29.2669 -29.2368 -29.2312 -29.2084
   -29.1865 -29.1168 -10.3014  -8.9204  -4.3792  -3.3179  -2.3488   0.8138
     2.1595   2.8697   5.2015   6.1197

     occupation numbers 
     1.0000   1.0000   1.0000   1.0000   1.0000   1.0000   1.0000   1.0000
     1.0000   1.0000   1.0000   1.0000   1.0000   1.0000   1.0000   0.0000
     0.0000   0.0000   0.0000   0.0000

          k = 0.3335 0.5776 0.0000 ( 11028 PWs)   bands (ev):

   -29.4104 -29.2959 -29.2925 -29.2924 -29.2613 -29.2611 -29.2270 -29.1990
   -29.1990 -29.1182  -9.5858  -9.5858  -4.7006  -2.8207  -2.8207   0.4335
     2.7418   2.7418   5.7286   6.6708

     occupation numbers 
     1.0000   1.0000   1.0000   1.0000   1.0000   1.0000   1.0000   1.0000
     1.0000   1.0000   1.0000   1.0000   1.0000   1.0000   1.0000   0.0000
     0.0000   0.0000   0.0000   0.0000

     highest occupied, lowest unoccupied level (ev):    -0.7939    0.3038

!    total energy              =    -369.10317927 Ry
     estimated scf accuracy    <          5.1E-09 Ry

     The total energy is the sum of the following terms:
     one-electron contribution =    -821.44261595 Ry
     hartree contribution      =     416.11794044 Ry
     xc contribution           =     -86.72600103 Ry
     ewald contribution        =     122.94749727 Ry

     convergence has been achieved in   6 iterations

     negative rho (up, down):  3.801E-06 0.000E+00

     Forces acting on atoms (cartesian axes, Ry/au):

     atom    1 type  1   force =     0.00000000    0.00000000    0.00007126
     atom    2 type  1   force =     0.00000000    0.00000000   -0.00007126
     The non-local contrib.  to forces
     atom    1 type  1   force =    -0.00000000    0.00000000    0.49419523
     atom    2 type  1   force =    -0.00000000    0.00000000   -0.49420962
     The ionic contribution  to forces
     atom    1 type  1   force =    -0.00000001    0.00000001  -37.09799584
     atom    2 type  1   force =     0.00000001   -0.00000001   37.09799584
     The local contribution  to forces
     atom    1 type  1   force =    -0.00000000   -0.00000000   36.60217579
     atom    2 type  1   force =     0.00000040   -0.00000023  -36.60215356
     The core correction contribution to forces
     atom    1 type  1   force =     0.00000000   -0.00000000    0.00135777
     atom    2 type  1   force =     0.00000003   -0.00000002   -0.00136509
     The Hubbard contrib.    to forces
     atom    1 type  1   force =     0.00000000    0.00000000    0.00000000
     atom    2 type  1   force =     0.00000000    0.00000000    0.00000000
     The SCF correction term to forces
     atom    1 type  1   force =    -0.00000000    0.00000000    0.00000000
     atom    2 type  1   force =     0.00000000   -0.00000000   -0.00035481

     Total force =     0.000071     Total SCF correction =     0.000355
     SCF correction compared to forces is large: reduce conv_thr to get better values


     Computing stress (Cartesian axis) and pressure


     negative rho (up, down):  3.801E-06 0.000E+00
          total   stress  (Ry/bohr**3)                   (kbar)     P=       -0.30
  -0.00000208  -0.00000000  -0.00000000           -0.31       -0.00       -0.00
  -0.00000000  -0.00000208   0.00000000           -0.00       -0.31        0.00
   0.00000000   0.00000000  -0.00000197            0.00        0.00       -0.29

     kinetic stress (kbar)   4978.17     -0.00      0.00
                               -0.00   4978.17     -0.00
                                0.00     -0.00   5003.46

     local   stress (kbar) -67192.78      0.00     -0.00
                                0.00 -67192.78      0.00
                               -0.00      0.00  67974.70

     nonloc. stress (kbar)     93.24     -0.00      0.00
                                0.00     93.24      0.00
                                0.00     -0.00    110.78

     hartree stress (kbar)  36287.73     -0.00      0.00
                               -0.00  36287.73     -0.00
                                0.00     -0.00 -29114.96

     exc-cor stress (kbar)   3013.34      0.00      0.00
                                0.00   3013.34      0.00
                                0.00      0.00   3013.34

     corecor stress (kbar)  -4729.32      0.00      0.00
                                0.00  -4729.32     -0.00
                                0.00     -0.00  -4729.95

     ewald   stress (kbar)  27549.32     -0.00      0.00
                               -0.00  27549.32     -0.00
                                0.00     -0.00 -42257.66

     hubbard stress (kbar)      0.00      0.00      0.00
                                0.00      0.00      0.00
                                0.00      0.00      0.00

     DFT-D   stress (kbar)      0.00      0.00      0.00
                                0.00      0.00      0.00
                                0.00      0.00      0.00

     XDM     stress (kbar)      0.00      0.00      0.00
                                0.00      0.00      0.00
                                0.00      0.00      0.00

     dft-nl  stress (kbar)      0.00      0.00      0.00
                                0.00      0.00      0.00
                                0.00      0.00      0.00

     TS-vdW  stress (kbar)      0.00      0.00      0.00
                                0.00      0.00      0.00
                                0.00      0.00      0.00


     Energy error            =      3.2E-06
     Gradient error          =      7.1E-05
     Cell gradient error     =      2.1E-06


     number of scf cycles    =   5
     number of bfgs steps    =   4

     enthalpy old            =    -369.1031760819 Ry
     enthalpy new            =    -369.1031792680 Ry

     CASE: enthalpy_new < enthalpy_old

     new trust radius        =       0.0008002998 bohr
     new conv_thr            =       0.0000000100 Ry

     new unit-cell volume =   1408.36850 a.u.^3 (   208.69868 Ang^3 )
     density =      0.19113 g/cm^3

CELL_PARAMETERS (alat=  7.57780176)
   0.999550021   0.000000000   0.000000000
  -0.499775010   0.865635710   0.000000000
   0.000000000   0.000000000   3.740648379

ATOMIC_POSITIONS (crystal)
Sb            0.0000000000        0.0000000000        0.5000000000    0   0   0
Sb            0.3333333330        0.6666666670        0.6085050076



     Writing output data file ./tmp/Sb.save/
     NEW-OLD atomic charge density approx. for the potential

     negative rho (up, down):  6.339E-06 0.000E+00
     extrapolated charge   29.99786, renormalised to   30.00000

     total cpu time spent up to now is       71.9 secs

     Self-consistent Calculation

     iteration #  1     ecut=    60.00 Ry     beta= 0.70
     Davidson diagonalization with overlap
     ethr =  1.00E-06,  avg # of iterations =  2.0

     Threshold (ethr) on eigenvalues was too large:
     Diagonalizing with lowered threshold

     Davidson diagonalization with overlap
     ethr =  9.24E-09,  avg # of iterations =  2.0

     negative rho (up, down):  4.304E-06 0.000E+00

     total cpu time spent up to now is       74.4 secs

     total energy              =    -369.10317522 Ry
     estimated scf accuracy    <       0.00000295 Ry

     iteration #  2     ecut=    60.00 Ry     beta= 0.70
     Davidson diagonalization with overlap
     ethr =  9.84E-09,  avg # of iterations =  3.0

     negative rho (up, down):  3.948E-06 0.000E+00

     total cpu time spent up to now is       76.1 secs

     total energy              =    -369.10317817 Ry
     estimated scf accuracy    <       0.00001105 Ry

     iteration #  3     ecut=    60.00 Ry     beta= 0.70
     Davidson diagonalization with overlap
     ethr =  9.84E-09,  avg # of iterations =  2.0

     negative rho (up, down):  3.870E-06 0.000E+00

     total cpu time spent up to now is       77.5 secs

     total energy              =    -369.10317933 Ry
     estimated scf accuracy    <       0.00000338 Ry

     iteration #  4     ecut=    60.00 Ry     beta= 0.70
     Davidson diagonalization with overlap
     ethr =  9.84E-09,  avg # of iterations =  1.5

     negative rho (up, down):  3.842E-06 0.000E+00

     total cpu time spent up to now is       79.0 secs

     total energy              =    -369.10317946 Ry
     estimated scf accuracy    <       0.00000062 Ry

[...]
        k(    1) = (   0.0000000   0.0000000   0.0000000), wk =   0.0246914
        k(    2) = (   0.0000000   0.1111111   0.0000000), wk =   0.1481481
        k(    3) = (   0.0000000   0.2222222   0.0000000), wk =   0.1481481
        k(    4) = (  -0.0000000   0.3333333   0.0000000), wk =   0.1481481
        k(    5) = (   0.0000000   0.4444444   0.0000000), wk =   0.1481481
        k(    6) = (   0.1111111   0.1111111   0.0000000), wk =   0.1481481
        k(    7) = (   0.1111111   0.2222222   0.0000000), wk =   0.2962963
        k(    8) = (   0.1111111   0.3333333   0.0000000), wk =   0.2962963
        k(    9) = (   0.1111111   0.4444444   0.0000000), wk =   0.1481481
        k(   10) = (   0.2222222   0.2222222   0.0000000), wk =   0.1481481
        k(   11) = (   0.2222222   0.3333333   0.0000000), wk =   0.2962963
        k(   12) = (   0.3333333   0.3333333   0.0000000), wk =   0.0493827

     Dense  grid:   349631 G-vectors     FFT dimensions: (  60,  60, 225)

     Smooth grid:    88525 G-vectors     FFT dimensions: (  40,  40, 144)

     Dynamical RAM for                 wfc:       0.84 MB

     Dynamical RAM for     wfc (w. buffer):      10.96 MB

     Dynamical RAM for           str. fact:       1.33 MB

     Dynamical RAM for           local pot:       0.67 MB

     Dynamical RAM for          nlocal pot:       1.52 MB

     Dynamical RAM for                qrad:       3.93 MB

     Dynamical RAM for          rho,v,vnew:       8.70 MB

     Dynamical RAM for               rhoin:       2.90 MB

     Dynamical RAM for            rho*nmix:      21.34 MB

     Dynamical RAM for           G-vectors:       5.17 MB

     Dynamical RAM for          h,s,v(r/c):       0.07 MB

     Dynamical RAM for          <psi|beta>:       0.01 MB

     Dynamical RAM for                 psi:       1.69 MB

     Dynamical RAM for                hpsi:       1.69 MB

     Dynamical RAM for                spsi:       1.69 MB

     Dynamical RAM for      wfcinit/wfcrot:       1.70 MB

     Dynamical RAM for           addusdens:     250.73 MB

     Dynamical RAM for          addusforce:     254.07 MB

     Dynamical RAM for         addusstress:     268.07 MB

     Estimated static dynamical RAM per process >      67.01 MB

     Estimated max dynamical RAM per process >     335.08 MB

     Estimated total dynamical RAM >       1.31 GB

     Initial potential from superposition of free atoms

     starting charge   27.99998, renormalised to   30.00000

     negative rho (up, down):  2.075E-03 0.000E+00
     Starting wfcs are   18 randomized atomic wfcs +    2 random wfcs

     total cpu time spent up to now is      197.8 secs

     Self-consistent Calculation

     iteration #  1     ecut=    60.00 Ry     beta= 0.70
     Davidson diagonalization with overlap
     c_bands:  1 eigenvalues not converged
     c_bands:  1 eigenvalues not converged
     c_bands:  2 eigenvalues not converged
     ethr =  1.00E-06,  avg # of iterations = 17.5

     negative rho (up, down):  5.019E-05 0.000E+00

     total cpu time spent up to now is      202.2 secs

     total energy              =    -368.18343693 Ry
     estimated scf accuracy    <       2.32434888 Ry

     iteration #  2     ecut=    60.00 Ry     beta= 0.70
     Davidson diagonalization with overlap
     ethr =  7.75E-03,  avg # of iterations =  2.7

     negative rho (up, down):  3.327E-06 0.000E+00

     total cpu time spent up to now is      203.9 secs

     total energy              =    -369.01138339 Ry
     estimated scf accuracy    <       0.45229264 Ry

     iteration #  3     ecut=    60.00 Ry     beta= 0.70
     Davidson diagonalization with overlap
     ethr =  1.51E-03,  avg # of iterations =  2.2

     total cpu time spent up to now is      206.0 secs

     total energy              =    -369.10185006 Ry
     estimated scf accuracy    <       0.00741403 Ry

     iteration #  4     ecut=    60.00 Ry     beta= 0.70
     Davidson diagonalization with overlap
     ethr =  2.47E-05,  avg # of iterations =  7.3

     negative rho (up, down):  3.115E-07 0.000E+00

     total cpu time spent up to now is      209.1 secs

     total energy              =    -369.10310903 Ry
     estimated scf accuracy    <       0.00041526 Ry

     iteration #  5     ecut=    60.00 Ry     beta= 0.70
     Davidson diagonalization with overlap
     ethr =  1.38E-06,  avg # of iterations =  4.4

     negative rho (up, down):  1.887E-06 0.000E+00

     total cpu time spent up to now is      211.2 secs

     total energy              =    -369.10317021 Ry
     estimated scf accuracy    <       0.00003699 Ry

     iteration #  6     ecut=    60.00 Ry     beta= 0.70
     Davidson diagonalization with overlap
     ethr =  1.23E-07,  avg # of iterations =  2.0

     negative rho (up, down):  2.721E-06 0.000E+00

     total cpu time spent up to now is      213.0 secs

     total energy              =    -369.10317133 Ry
     estimated scf accuracy    <       0.00005212 Ry

     iteration #  7     ecut=    60.00 Ry     beta= 0.70
     Davidson diagonalization with overlap
     ethr =  1.23E-07,  avg # of iterations =  1.7

     negative rho (up, down):  3.593E-06 0.000E+00

     total cpu time spent up to now is      214.3 secs

     total energy              =    -369.10317825 Ry
     estimated scf accuracy    <       0.00000040 Ry

     iteration #  8     ecut=    60.00 Ry     beta= 0.70
     Davidson diagonalization with overlap
     ethr =  1.34E-09,  avg # of iterations =  2.0

     negative rho (up, down):  3.690E-06 0.000E+00

     total cpu time spent up to now is      215.7 secs

     total energy              =    -369.10317830 Ry
     estimated scf accuracy    <       0.00000002 Ry

     iteration #  9     ecut=    60.00 Ry     beta= 0.70
     Davidson diagonalization with overlap
     ethr =  7.17E-11,  avg # of iterations =  2.0

     negative rho (up, down):  3.733E-06 0.000E+00

     total cpu time spent up to now is      217.1 secs

     End of self-consistent calculation

          k = 0.0000 0.0000 0.0000 ( 11133 PWs)   bands (ev):

   -29.4206 -29.4206 -29.3277 -29.3277 -29.2902 -29.1991 -29.1991 -29.1654
   -29.1082 -29.1082 -12.6525  -7.3978  -1.6848  -0.7907  -0.7907   0.8864
     2.0580   2.0580   3.6002   3.6859

     occupation numbers 
     1.0000   1.0000   1.0000   1.0000   1.0000   1.0000   1.0000   1.0000
     1.0000   1.0000   1.0000   1.0000   1.0000   1.0000   1.0000   0.0000
     0.0000   0.0000   0.0000   0.0000

          k = 0.0000 0.1284 0.0000 ( 11090 PWs)   bands (ev):

   -29.4195 -29.4130 -29.3270 -29.3229 -29.2876 -29.2024 -29.1997 -29.1672
   -29.1173 -29.1086 -12.5101  -7.3746  -1.9934  -1.6116  -1.1081   1.3133
     2.1646   2.3492   3.7915   3.8510

     occupation numbers 
     1.0000   1.0000   1.0000   1.0000   1.0000   1.0000   1.0000   1.0000
     1.0000   1.0000   1.0000   1.0000   1.0000   1.0000   1.0000   0.0000
     0.0000   0.0000   0.0000   0.0000

          k = 0.0000 0.2567 0.0000 ( 11036 PWs)   bands (ev):

   -29.4165 -29.3914 -29.3259 -29.3096 -29.2787 -29.2117 -29.2025 -29.1723
   -29.1422 -29.1098 -12.0911  -7.4259  -3.4548  -1.6989  -1.5077   0.5606
     2.7388   2.7533   4.0478   4.3296

     occupation numbers 
     1.0000   1.0000   1.0000   1.0000   1.0000   1.0000   1.0000   1.0000
     1.0000   1.0000   1.0000   1.0000   1.0000   1.0000   1.0000   0.0000
     0.0000   0.0000   0.0000   0.0000

          k = 0.0000 0.3851 0.0000 ( 11020 PWs)   bands (ev):

   -29.4130 -29.3612 -29.3232 -29.2902 -29.2642 -29.2266 -29.2107 -29.1868
   -29.1683 -29.1113 -11.4327  -7.8951  -4.1650  -2.1956  -1.7999   0.3046
     2.1883   2.8357   4.5956   4.7154

     occupation numbers 
     1.0000   1.0000   1.0000   1.0000   1.0000   1.0000   1.0000   1.0000
     1.0000   1.0000   1.0000   1.0000   1.0000   1.0000   1.0000   0.0000
     0.0000   0.0000   0.0000   0.0000

          k = 0.0000 0.5135 0.0000 ( 11042 PWs)   bands (ev):

   -29.4107 -29.3419 -29.3081 -29.2680 -29.2513 -29.2458 -29.2250 -29.2152
   -29.1738 -29.1123 -10.7032  -8.6937  -4.1075  -2.4652  -2.3990   0.6316
     1.5821   2.7984   4.2123   5.6850

     occupation numbers 
     1.0000   1.0000   1.0000   1.0000   1.0000   1.0000   1.0000   1.0000
     1.0000   1.0000   1.0000   1.0000   1.0000   1.0000   1.0000   0.0000
     0.0000   0.0000   0.0000   0.0000

          k = 0.1112 0.1926 0.0000 ( 11079 PWs)   bands (ev):

   -29.4174 -29.3983 -29.3249 -29.3155 -29.2814 -29.2094 -29.2005 -29.1707
   -29.1342 -29.1096 -12.2290  -7.3847  -3.0068  -1.8572  -1.5010   1.4127
     1.9372   2.9907   4.0953   4.1151

     occupation numbers 
     1.0000   1.0000   1.0000   1.0000   1.0000   1.0000   1.0000   1.0000
     1.0000   1.0000   1.0000   1.0000   1.0000   1.0000   1.0000   0.0000
     0.0000   0.0000   0.0000   0.0000

          k = 0.1112 0.3209 0.0000 ( 11043 PWs)   bands (ev):

   -29.4143 -29.3713 -29.3220 -29.3026 -29.2678 -29.2232 -29.2035 -29.1788
   -29.1622 -29.1114 -11.6856  -7.6405  -3.8704  -2.6644  -1.5199   0.9384
     2.2478   2.8315   4.4283   4.6685

     occupation numbers 
     1.0000   1.0000   1.0000   1.0000   1.0000   1.0000   1.0000   1.0000
     1.0000   1.0000   1.0000   1.0000   1.0000   1.0000   1.0000   0.0000
     0.0000   0.0000   0.0000   0.0000

          k = 0.1112 0.4493 0.0000 ( 11031 PWs)   bands (ev):

   -29.4114 -29.3424 -29.3148 -29.2842 -29.2511 -29.2418 -29.2133 -29.2051
   -29.1756 -29.1131 -10.9512  -8.3483  -4.1224  -3.0357  -1.9989   0.9439
     1.9924   2.4909   4.6440   5.3061

     occupation numbers 
     1.0000   1.0000   1.0000   1.0000   1.0000   1.0000   1.0000   1.0000
     1.0000   1.0000   1.0000   1.0000   1.0000   1.0000   1.0000   0.0000
     0.0000   0.0000   0.0000   0.0000

          k = 0.1112 0.5777 0.0000 ( 11050 PWs)   bands (ev):

   -29.4103 -29.3340 -29.2985 -29.2651 -29.2640 -29.2428 -29.2250 -29.2199
   -29.1776 -29.1138 -10.4316  -8.9188  -4.1019  -2.9438  -2.5014   1.3053
     1.5190   2.4784   4.3183   6.4499

     occupation numbers 
     1.0000   1.0000   1.0000   1.0000   1.0000   1.0000   1.0000   1.0000
     1.0000   1.0000   1.0000   1.0000   1.0000   1.0000   1.0000   0.0000
     0.0000   0.0000   0.0000   0.0000

          k = 0.2223 0.3851 0.0000 ( 11045 PWs)   bands (ev):

   -29.4118 -29.3415 -29.3141 -29.2954 -29.2498 -29.2425 -29.2040 -29.2013
   -29.1787 -29.1140 -11.0461  -8.1749  -3.7933  -3.7741  -1.7841   1.3501
     1.5417   3.1692   5.0399   5.2390

     occupation numbers 
     1.0000   1.0000   1.0000   1.0000   1.0000   1.0000   1.0000   1.0000
     1.0000   1.0000   1.0000   1.0000   1.0000   1.0000   1.0000   0.0000
     0.0000   0.0000   0.0000   0.0000

          k = 0.2223 0.5135 0.0000 ( 11049 PWs)   bands (ev):

   -29.4102 -29.3185 -29.2995 -29.2801 -29.2661 -29.2360 -29.2304 -29.2078
   -29.1859 -29.1161 -10.3000  -8.9189  -4.3780  -3.3174  -2.3484   0.8135
     2.1595   2.8708   5.2036   6.1208

     occupation numbers 
     1.0000   1.0000   1.0000   1.0000   1.0000   1.0000   1.0000   1.0000
     1.0000   1.0000   1.0000   1.0000   1.0000   1.0000   1.0000   0.0000
     0.0000   0.0000   0.0000   0.0000

          k = 0.3335 0.5777 0.0000 ( 11010 PWs)   bands (ev):

   -29.4097 -29.2952 -29.2918 -29.2916 -29.2605 -29.2604 -29.2263 -29.1984
   -29.1983 -29.1175  -9.5843  -9.5842  -4.6995  -2.8203  -2.8203   0.4330
     2.7419   2.7419   5.7294   6.6740

     occupation numbers 
     1.0000   1.0000   1.0000   1.0000   1.0000   1.0000   1.0000   1.0000
     1.0000   1.0000   1.0000   1.0000   1.0000   1.0000   1.0000   0.0000
     0.0000   0.0000   0.0000   0.0000

     highest occupied, lowest unoccupied level (ev):    -0.7907    0.3046

!    total energy              =    -369.10317830 Ry
     estimated scf accuracy    <          2.3E-09 Ry

     The total energy is the sum of the following terms:
     one-electron contribution =    -821.51689344 Ry
     hartree contribution      =     416.15781967 Ry
     xc contribution           =     -86.72616963 Ry
     ewald contribution        =     122.98206510 Ry

     convergence has been achieved in   9 iterations

     negative rho (up, down):  3.733E-06 0.000E+00

     Forces acting on atoms (cartesian axes, Ry/au):

     atom    1 type  1   force =     0.00000000    0.00000000    0.00017138
     atom    2 type  1   force =    -0.00000000   -0.00000000   -0.00017138
     The non-local contrib.  to forces
     atom    1 type  1   force =    -0.00000000   -0.00000000    0.49352399
     atom    2 type  1   force =    -0.00000000   -0.00000000   -0.49355716
     The ionic contribution  to forces
     atom    1 type  1   force =    -0.00000001    0.00000001  -37.11235432
     atom    2 type  1   force =     0.00000001   -0.00000001   37.11235432
     The local contribution  to forces
     atom    1 type  1   force =     0.00000000   -0.00000000   36.61756742
     atom    2 type  1   force =     0.00000040   -0.00000023  -36.61755959
     The core correction contribution to forces
     atom    1 type  1   force =     0.00000000   -0.00000000    0.00140120
     atom    2 type  1   force =     0.00000003   -0.00000002   -0.00140177
     The Hubbard contrib.    to forces
     atom    1 type  1   force =     0.00000000    0.00000000    0.00000000
     atom    2 type  1   force =     0.00000000    0.00000000    0.00000000
     The SCF correction term to forces
     atom    1 type  1   force =     0.00000000   -0.00000000    0.00000000
     atom    2 type  1   force =    -0.00000000    0.00000000   -0.00002454

     Total force =     0.000171     Total SCF correction =     0.000025
     SCF correction compared to forces is large: reduce conv_thr to get better values


     Computing stress (Cartesian axis) and pressure


     negative rho (up, down):  3.733E-06 0.000E+00
          total   stress  (Ry/bohr**3)                   (kbar)     P=       -0.04
  -0.00000024   0.00000000   0.00000000           -0.03        0.00        0.00
   0.00000000  -0.00000024   0.00000000            0.00       -0.03        0.00
   0.00000000   0.00000000  -0.00000032            0.00        0.00       -0.05

     kinetic stress (kbar)   4979.55      0.00      0.00
                                0.00   4979.55      0.00
                                0.00      0.00   5004.75

     local   stress (kbar) -67219.27      0.00     -0.00
                                0.00 -67219.27      0.00
                               -0.00      0.00  68002.50

     nonloc. stress (kbar)     93.49     -0.00      0.00
                               -0.00     93.49      0.00
                                0.00      0.00    111.03

     hartree stress (kbar)  36301.89      0.00      0.00
                                0.00  36301.89     -0.00
                                0.00     -0.00 -29127.72

     exc-cor stress (kbar)   3014.13      0.00      0.00
                                0.00   3014.13      0.00
                                0.00      0.00   3014.13

     corecor stress (kbar)  -4730.57      0.00      0.00
                                0.00  -4730.57     -0.00
                                0.00     -0.00  -4731.20

     ewald   stress (kbar)  27560.74     -0.00      0.00
                               -0.00  27560.74     -0.00
                                0.00     -0.00 -42273.53

     hubbard stress (kbar)      0.00      0.00      0.00
                                0.00      0.00      0.00
                                0.00      0.00      0.00

     DFT-D   stress (kbar)      0.00      0.00      0.00
                                0.00      0.00      0.00
                                0.00      0.00      0.00

     XDM     stress (kbar)      0.00      0.00      0.00
                                0.00      0.00      0.00
                                0.00      0.00      0.00

     dft-nl  stress (kbar)      0.00      0.00      0.00
                                0.00      0.00      0.00
                                0.00      0.00      0.00

     TS-vdW  stress (kbar)      0.00      0.00      0.00
                                0.00      0.00      0.00
                                0.00      0.00      0.00



     Writing output data file ./tmp/Sb.save/

     init_run     :      2.89s CPU      3.43s WALL (       2 calls)
     electrons    :    123.15s CPU    141.98s WALL (      14 calls)
     update_pot   :     13.88s CPU     14.08s WALL (      12 calls)
     forces       :     12.45s CPU     13.50s WALL (      14 calls)
     stress       :     42.14s CPU     45.73s WALL (      14 calls)

     Called by init_run:
     wfcinit      :      0.60s CPU      0.66s WALL (       2 calls)
     wfcinit:atom :      0.01s CPU      0.01s WALL (      24 calls)
     wfcinit:wfcr :      0.57s CPU      0.63s WALL (      24 calls)
     potinit      :      0.59s CPU      0.61s WALL (       2 calls)
     hinit0       :      1.33s CPU      1.34s WALL (       2 calls)

     Called by electrons:
     c_bands      :     79.84s CPU     87.06s WALL (     100 calls)
     sum_band     :     29.90s CPU     37.40s WALL (     100 calls)
     v_of_rho     :      0.99s CPU      1.16s WALL (     104 calls)
     v_h          :      0.49s CPU      0.57s WALL (     104 calls)
     v_xc         :      0.72s CPU      0.85s WALL (     132 calls)
     newd         :     12.89s CPU     17.77s WALL (     104 calls)
     mix_rho      :      0.73s CPU      0.84s WALL (     100 calls)

     Called by c_bands:
     init_us_2    :      1.13s CPU      1.40s WALL (    2760 calls)
     cegterg      :     77.35s CPU     84.39s WALL (    1200 calls)

     Called by sum_band:
     sum_band:wei :      0.00s CPU      0.00s WALL (     100 calls)
     sum_band:loo :     15.11s CPU     16.02s WALL (     100 calls)
     sum_band:buf :      0.14s CPU      0.14s WALL (    1200 calls)
     sum_band:ini :      0.49s CPU      0.65s WALL (    1200 calls)
     sum_band:cal :      1.42s CPU      1.71s WALL (    1200 calls)
     sum_band:bec :      0.01s CPU      0.01s WALL (    1200 calls)
     addusdens    :     12.18s CPU     18.61s WALL (     100 calls)
     addusd:skk   :      0.03s CPU      0.05s WALL (     100 calls)
     addusd:dgemm :      1.36s CPU      4.62s WALL (     100 calls)
     addusd:qvan2 :      9.63s CPU     11.94s WALL (     100 calls)

     Called by *egterg:
     cdiaghg      :      1.07s CPU      1.26s WALL (    3675 calls)
     cegterg:over :      4.04s CPU      4.81s WALL (    2739 calls)
     cegterg:upda :      1.81s CPU      2.35s WALL (    2739 calls)
     cegterg:last :      2.93s CPU      3.50s WALL (    2179 calls)
     h_psi        :     63.36s CPU     67.00s WALL (    3963 calls)
     s_psi        :      1.95s CPU      2.52s WALL (    3963 calls)
     g_psi        :      0.14s CPU      0.14s WALL (    2739 calls)

     Called by h_psi:
     h_psi:calbec :      3.92s CPU      4.70s WALL (    3963 calls)
     vloc_psi     :     56.87s CPU     58.89s WALL (    3963 calls)
     add_vuspsi   :      2.28s CPU      2.98s WALL (    3963 calls)

     General routines
     calbec       :      6.08s CPU      7.33s WALL (    6003 calls)
     fft          :      2.76s CPU      3.01s WALL (     730 calls)
     ffts         :      0.16s CPU      0.18s WALL (     204 calls)
     fftw         :     65.08s CPU     67.43s WALL (  140710 calls)
     interpolate  :      0.47s CPU      0.55s WALL (     104 calls)

     Parallel routines
     fft_scatt_xy :      6.24s CPU      6.48s WALL (  141644 calls)
     fft_scatt_yz :     10.03s CPU     10.80s WALL (  141644 calls)

     PWSCF        :   3m16.27s CPU   3m41.37s WALL


   This run was terminated on:  15: 5:55  30Apr2026            

=------------------------------------------------------------------------------=
   JOB DONE.
=------------------------------------------------------------------------------=
Note: The following floating-point exceptions are signalling: IEEE_INVALID_FLAG IEEE_DIVIDE_BY_ZERO IEEE_UNDERFLOW_FLAG
