
     Program PWSCF v.6.7MaX starts on 30Apr2026 at 15: 7:37 

     This program is part of the open-source Quantum ESPRESSO suite
     for quantum simulation of materials; please cite
         "P. Giannozzi et al., J. Phys.:Condens. Matter 21 395502 (2009);
         "P. Giannozzi et al., J. Phys.:Condens. Matter 29 465901 (2017);
          URL http://www.quantum-espresso.org", 
     in publications or presentations arising from this work. More details at
     http://www.quantum-espresso.org/quote

     Parallel version (MPI & OpenMP), running on       4 processor cores
     Number of MPI processes:                 4
     Threads/MPI process:                     1

     MPI processes distributed on     1 nodes
     R & G space division:  proc/nbgrp/npool/nimage =       4
     Waiting for input...
     Reading input from standard input

     Current dimensions of program PWSCF are:
     Max number of different atomic species (ntypx) = 10
     Max number of k-points (npk) =  40000
     Max angular momentum in pseudopotentials (lmaxx) =  3

     Subspace diagonalization in iterative solution of the eigenvalue problem:
     a serial algorithm will be used


     Parallelization info
     --------------------
     sticks:   dense  smooth     PW     G-vecs:    dense   smooth      PW
     Min         595     238     66                87403    22124    3391
     Max         596     239     69                87412    22135    3393
     Sum        2383     955    271               349631    88525   13569



     bravais-lattice index     =            4
     lattice parameter (alat)  =       7.5737  a.u.
     unit-cell volume          =    1408.1046 (a.u.)^3
     number of atoms/cell      =            2
     number of atomic types    =            1
     number of electrons       =        30.00
     number of Kohn-Sham states=           20
     kinetic-energy cutoff     =      60.0000  Ry
     charge density cutoff     =     600.0000  Ry
     scf convergence threshold =      1.0E-06
     mixing beta               =       0.7000
     number of iterations used =            8  plain     mixing
     energy convergence thresh.=      1.0E-04
     force convergence thresh. =      1.0E-03
     press convergence thresh. =      1.0E-03
     Exchange-correlation=  SLA  PZ   NOGX NOGC
                           (   1   1   0   0   0   0   0)
     nstep                     =           50


     celldm(1)=   7.573682  celldm(2)=   0.000000  celldm(3)=   3.742683
     celldm(4)=   0.000000  celldm(5)=   0.000000  celldm(6)=   0.000000

     crystal axes: (cart. coord. in units of alat)
               a(1) = (   1.000000   0.000000   0.000000 )  
               a(2) = (  -0.500000   0.866025   0.000000 )  
               a(3) = (   0.000000   0.000000   3.742683 )  

     reciprocal axes: (cart. coord. in units 2 pi/alat)
               b(1) = (  1.000000  0.577350 -0.000000 )  
               b(2) = (  0.000000  1.154701  0.000000 )  
               b(3) = (  0.000000 -0.000000  0.267188 )  


     PseudoPot. # 1 for Sb read from file:
     /Users/cdhogan/Research/Codes/espresso/PSEUDO/GBRV-LDA-1.5/sb_lda_v1.4.uspp.F.UPF
     MD5 check sum: 3d1f43858b4404e985453f13816be267
     Pseudo is Ultrasoft + core correction, Zval = 15.0
     Generated by new atomic code, or converted to UPF format
     Using radial grid of  891 points,  6 beta functions with: 
                l(1) =   0
                l(2) =   0
                l(3) =   1
                l(4) =   1
                l(5) =   2
                l(6) =   2
     Q(r) pseudized with  8 coefficients,  rinner =    1.350   1.350   1.350
                                                       1.350   1.350

     atomic species   valence    mass     pseudopotential
        Sb            15.00    12.01100     Sb( 1.00)

      6 Sym. Ops. (no inversion) found


                                    s                        frac. trans.

      isym =  1     identity                                     

 cryst.   s( 1) = (     1          0          0      )
                  (     0          1          0      )
                  (     0          0          1      )

 cart.    s( 1) = (  1.0000000  0.0000000  0.0000000 )
                  (  0.0000000  1.0000000  0.0000000 )
                  (  0.0000000  0.0000000  1.0000000 )


      isym =  2     120 deg rotation - cryst. axis [0,0,1]       

 cryst.   s( 2) = (     0          1          0      )
                  (    -1         -1          0      )
                  (     0          0          1      )

 cart.    s( 2) = ( -0.5000000 -0.8660254  0.0000000 )
                  (  0.8660254 -0.5000000  0.0000000 )
                  (  0.0000000  0.0000000  1.0000000 )


      isym =  3     120 deg rotation - cryst. axis [0,0,-1]      

 cryst.   s( 3) = (    -1         -1          0      )
                  (     1          0          0      )
                  (     0          0          1      )

 cart.    s( 3) = ( -0.5000000  0.8660254  0.0000000 )
                  ( -0.8660254 -0.5000000  0.0000000 )
                  (  0.0000000  0.0000000  1.0000000 )


      isym =  4     inv. 180 deg rotation - cart. axis [1,0,0]   

 cryst.   s( 4) = (    -1          0          0      )
                  (     1          1          0      )
                  (     0          0          1      )

 cart.    s( 4) = ( -1.0000000  0.0000000  0.0000000 )
                  (  0.0000000  1.0000000  0.0000000 )
                  (  0.0000000  0.0000000  1.0000000 )


      isym =  5     inv. 180 deg rotation - cryst. axis [0,1,0]  

 cryst.   s( 5) = (     1          1          0      )
                  (     0         -1          0      )
                  (     0          0          1      )

 cart.    s( 5) = (  0.5000000  0.8660254  0.0000000 )
                  (  0.8660254 -0.5000000  0.0000000 )
                  (  0.0000000  0.0000000  1.0000000 )


      isym =  6     inv. 180 deg rotation - cryst. axis [1,1,0]  

 cryst.   s( 6) = (     0         -1          0      )
                  (    -1          0          0      )
                  (     0          0          1      )

 cart.    s( 6) = (  0.5000000 -0.8660254  0.0000000 )
                  ( -0.8660254 -0.5000000  0.0000000 )
                  (  0.0000000  0.0000000  1.0000000 )


     point group C_3v (3m)  
     there are  3 classes
     the character table:

       E     2C3   3s_v 
A_1    1.00  1.00  1.00
A_2    1.00  1.00 -1.00
E      2.00 -1.00  0.00

     the symmetry operations in each class and the name of the first element:

     E        1
          identity                                               
     2C3      2    3
          120 deg rotation - cryst. axis [0,0,1]                 
     3s_v     4    5    6
          inv. 180 deg rotation - cart. axis [1,0,0]             

   Cartesian axes

     site n.     atom                  positions (alat units)
         1           Sb  tau(   1) = (   0.0000000   0.0000000   1.8713415  )
         2           Sb  tau(   2) = (  -0.0000000   0.5773503   2.2774226  )

   Crystallographic axes

     site n.     atom                  positions (cryst. coord.)
         1           Sb  tau(   1) = (  0.0000000  0.0000000  0.5000000  )
         2           Sb  tau(   2) = (  0.3333333  0.6666667  0.6085000  )

     number of k points=    27
                       cart. coord. in units 2pi/alat
        k(    1) = (   0.0000000   0.0000000   0.0000000), wk =   0.0088889
        k(    2) = (   0.0000000   0.0769800   0.0000000), wk =   0.0533333
        k(    3) = (   0.0000000   0.1539601   0.0000000), wk =   0.0533333
        k(    4) = (   0.0000000   0.2309401   0.0000000), wk =   0.0533333
        k(    5) = (   0.0000000   0.3079201   0.0000000), wk =   0.0533333
        k(    6) = (   0.0000000   0.3849002   0.0000000), wk =   0.0533333
        k(    7) = (   0.0000000   0.4618802   0.0000000), wk =   0.0533333
        k(    8) = (   0.0000000   0.5388603   0.0000000), wk =   0.0533333
        k(    9) = (   0.0666667   0.1154701   0.0000000), wk =   0.0533333
        k(   10) = (   0.0666667   0.1924501   0.0000000), wk =   0.1066667
        k(   11) = (   0.0666667   0.2694301   0.0000000), wk =   0.1066667
        k(   12) = (   0.0666667   0.3464102   0.0000000), wk =   0.1066667
        k(   13) = (   0.0666667   0.4233902   0.0000000), wk =   0.1066667
        k(   14) = (   0.0666667   0.5003702   0.0000000), wk =   0.1066667
        k(   15) = (   0.0666667   0.5773503   0.0000000), wk =   0.0533333
        k(   16) = (   0.1333333   0.2309401   0.0000000), wk =   0.0533333
        k(   17) = (   0.1333333   0.3079201   0.0000000), wk =   0.1066667
        k(   18) = (   0.1333333   0.3849002   0.0000000), wk =   0.1066667
        k(   19) = (   0.1333333   0.4618802   0.0000000), wk =   0.1066667
        k(   20) = (   0.1333333   0.5388603   0.0000000), wk =   0.1066667
        k(   21) = (   0.2000000   0.3464102   0.0000000), wk =   0.0533333
        k(   22) = (   0.2000000   0.4233902   0.0000000), wk =   0.1066667
        k(   23) = (   0.2000000   0.5003702   0.0000000), wk =   0.1066667
        k(   24) = (   0.2000000   0.5773503   0.0000000), wk =   0.0533333
        k(   25) = (   0.2666667   0.4618802   0.0000000), wk =   0.0533333
        k(   26) = (   0.2666667   0.5388603   0.0000000), wk =   0.1066667
        k(   27) = (   0.3333333   0.5773503   0.0000000), wk =   0.0177778

                       cryst. coord.
        k(    1) = (   0.0000000   0.0000000   0.0000000), wk =   0.0088889
        k(    2) = (   0.0000000   0.0666667   0.0000000), wk =   0.0533333
        k(    3) = (   0.0000000   0.1333333   0.0000000), wk =   0.0533333
        k(    4) = (   0.0000000   0.2000000   0.0000000), wk =   0.0533333
        k(    5) = (   0.0000000   0.2666667   0.0000000), wk =   0.0533333
        k(    6) = (   0.0000000   0.3333333   0.0000000), wk =   0.0533333
        k(    7) = (   0.0000000   0.4000000   0.0000000), wk =   0.0533333
        k(    8) = (   0.0000000   0.4666667   0.0000000), wk =   0.0533333
        k(    9) = (   0.0666667   0.0666667   0.0000000), wk =   0.0533333
        k(   10) = (   0.0666667   0.1333333   0.0000000), wk =   0.1066667
        k(   11) = (   0.0666667   0.2000000   0.0000000), wk =   0.1066667
        k(   12) = (   0.0666667   0.2666667   0.0000000), wk =   0.1066667
        k(   13) = (   0.0666667   0.3333333   0.0000000), wk =   0.1066667
        k(   14) = (   0.0666667   0.4000000   0.0000000), wk =   0.1066667
        k(   15) = (   0.0666667   0.4666667   0.0000000), wk =   0.0533333
        k(   16) = (   0.1333333   0.1333333   0.0000000), wk =   0.0533333
        k(   17) = (   0.1333333   0.2000000   0.0000000), wk =   0.1066667
        k(   18) = (   0.1333333   0.2666667   0.0000000), wk =   0.1066667
        k(   19) = (   0.1333333   0.3333333   0.0000000), wk =   0.1066667
        k(   20) = (   0.1333333   0.4000000   0.0000000), wk =   0.1066667
        k(   21) = (   0.2000000   0.2000000   0.0000000), wk =   0.0533333
        k(   22) = (   0.2000000   0.2666667   0.0000000), wk =   0.1066667
        k(   23) = (   0.2000000   0.3333333   0.0000000), wk =   0.1066667
        k(   24) = (   0.2000000   0.4000000   0.0000000), wk =   0.0533333
        k(   25) = (   0.2666667   0.2666667   0.0000000), wk =   0.0533333
        k(   26) = (   0.2666667   0.3333333   0.0000000), wk =   0.1066667
        k(   27) = (   0.3333333   0.3333333   0.0000000), wk =   0.0177778

     Dense  grid:   349631 G-vectors     FFT dimensions: (  60,  60, 225)

     Smooth grid:    88525 G-vectors     FFT dimensions: (  40,  40, 144)

     Dynamical RAM for                 wfc:       0.84 MB

     Dynamical RAM for     wfc (w. buffer):      23.60 MB

     Dynamical RAM for           str. fact:       1.33 MB

     Dynamical RAM for           local pot:       0.00 MB

     Dynamical RAM for          nlocal pot:       1.52 MB

     Dynamical RAM for                qrad:       3.93 MB

     Dynamical RAM for          rho,v,vnew:       8.70 MB

     Dynamical RAM for               rhoin:       2.90 MB

     Dynamical RAM for            rho*nmix:      21.34 MB

     Dynamical RAM for           G-vectors:       5.17 MB

     Dynamical RAM for          h,s,v(r/c):       0.07 MB

     Dynamical RAM for          <psi|beta>:       0.01 MB

     Dynamical RAM for                 psi:       1.69 MB

     Dynamical RAM for                hpsi:       1.69 MB

     Dynamical RAM for                spsi:       1.69 MB

     Dynamical RAM for      wfcinit/wfcrot:       1.70 MB

     Dynamical RAM for           addusdens:     250.73 MB

     Dynamical RAM for          addusforce:     254.07 MB

     Dynamical RAM for         addusstress:     268.07 MB

     Estimated static dynamical RAM per process >      78.98 MB

     Estimated max dynamical RAM per process >     347.05 MB

     Estimated total dynamical RAM >       1.36 GB

     Initial potential from superposition of free atoms

     starting charge   27.99998, renormalised to   30.00000

     negative rho (up, down):  2.075E-03 0.000E+00
     Starting wfcs are   18 randomized atomic wfcs +    2 random wfcs

     total cpu time spent up to now is        1.9 secs

     Self-consistent Calculation

     iteration #  1     ecut=    60.00 Ry     beta= 0.70
     Davidson diagonalization with overlap
     ethr =  1.00E-02,  avg # of iterations =  7.4

     negative rho (up, down):  3.986E-05 0.000E+00

     total cpu time spent up to now is        5.8 secs

     total energy              =    -368.22065538 Ry
     estimated scf accuracy    <       2.27920496 Ry

     iteration #  2     ecut=    60.00 Ry     beta= 0.70
     Davidson diagonalization with overlap
     ethr =  7.60E-03,  avg # of iterations =  2.5

     negative rho (up, down):  1.811E-06 0.000E+00

     total cpu time spent up to now is        8.8 secs

     total energy              =    -369.01422649 Ry
     estimated scf accuracy    <       0.43174667 Ry

     iteration #  3     ecut=    60.00 Ry     beta= 0.70
     Davidson diagonalization with overlap
     ethr =  1.44E-03,  avg # of iterations =  2.0

     total cpu time spent up to now is       11.4 secs

     total energy              =    -369.10208275 Ry
     estimated scf accuracy    <       0.00706825 Ry

     iteration #  4     ecut=    60.00 Ry     beta= 0.70
     Davidson diagonalization with overlap
     ethr =  2.36E-05,  avg # of iterations =  6.9

     negative rho (up, down):  5.011E-08 0.000E+00

     total cpu time spent up to now is       14.6 secs

     total energy              =    -369.10320171 Ry
     estimated scf accuracy    <       0.00053549 Ry

     iteration #  5     ecut=    60.00 Ry     beta= 0.70
     Davidson diagonalization with overlap
     ethr =  1.78E-06,  avg # of iterations =  6.9

     negative rho (up, down):  1.447E-06 0.000E+00

     total cpu time spent up to now is       17.7 secs

     total energy              =    -369.10299055 Ry
     estimated scf accuracy    <       0.00316661 Ry

     iteration #  6     ecut=    60.00 Ry     beta= 0.70
     Davidson diagonalization with overlap
     ethr =  1.78E-06,  avg # of iterations =  4.5

     negative rho (up, down):  2.567E-06 0.000E+00

     total cpu time spent up to now is       20.3 secs

     total energy              =    -369.10336601 Ry
     estimated scf accuracy    <       0.00001803 Ry

     iteration #  7     ecut=    60.00 Ry     beta= 0.70
     Davidson diagonalization with overlap
     ethr =  6.01E-08,  avg # of iterations =  2.0

     negative rho (up, down):  3.763E-06 0.000E+00

     total cpu time spent up to now is       22.8 secs

     End of self-consistent calculation

          k = 0.0000 0.0000 0.0000 ( 11133 PWs)   bands (ev):

   -29.4233 -29.4233 -29.3305 -29.3305 -29.2922 -29.2018 -29.2018 -29.1674
   -29.1106 -29.1106 -12.6554  -7.4002  -1.6867  -0.7938  -0.7938   0.8842
     2.0553   2.0553   3.5974   3.6838

     occupation numbers 
     1.0000   1.0000   1.0000   1.0000   1.0000   1.0000   1.0000   1.0000
     1.0000   1.0000   1.0000   1.0000   1.0000   1.0000   1.0000   0.0000
     0.0000   0.0000   0.0000   0.0000

          k = 0.0000 0.0770 0.0000 ( 11083 PWs)   bands (ev):

   -29.4229 -29.4205 -29.3302 -29.3288 -29.2913 -29.2029 -29.2019 -29.1680
   -29.1139 -29.1108 -12.6040  -7.3898  -1.6587  -1.3623  -0.9201   1.2982
     1.9498   2.1756   3.6725   3.7412

     occupation numbers 
     1.0000   1.0000   1.0000   1.0000   1.0000   1.0000   1.0000   1.0000
     1.0000   1.0000   1.0000   1.0000   1.0000   1.0000   1.0000   0.0000
     0.0000   0.0000   0.0000   0.0000

          k = 0.0000 0.1540 0.0000 ( 11068 PWs)   bands (ev):

   -29.4217 -29.4124 -29.3296 -29.3237 -29.2884 -29.2064 -29.2026 -29.1700
   -29.1236 -29.1113 -12.4507  -7.3728  -2.3186  -1.5865  -1.2241   1.1759
     2.3597   2.4395   3.8454   3.9335

     occupation numbers 
     1.0000   1.0000   1.0000   1.0000   1.0000   1.0000   1.0000   1.0000
     1.0000   1.0000   1.0000   1.0000   1.0000   1.0000   1.0000   0.0000
     0.0000   0.0000   0.0000   0.0000

          k = 0.0000 0.2309 0.0000 ( 11042 PWs)   bands (ev):

   -29.4198 -29.3994 -29.3289 -29.3156 -29.2831 -29.2120 -29.2042 -29.1730
   -29.1387 -29.1120 -12.1988  -7.3970  -3.2075  -1.5841  -1.5162   0.6981
     2.6801   2.7447   3.9883   4.2292

     occupation numbers 
     1.0000   1.0000   1.0000   1.0000   1.0000   1.0000   1.0000   1.0000
     1.0000   1.0000   1.0000   1.0000   1.0000   1.0000   1.0000   0.0000
     0.0000   0.0000   0.0000   0.0000

          k = 0.0000 0.3079 0.0000 ( 11056 PWs)   bands (ev):

   -29.4177 -29.3824 -29.3280 -29.3051 -29.2756 -29.2197 -29.2074 -29.1777
   -29.1569 -29.1129 -11.8553  -7.5483  -3.8575  -1.9225  -1.5536   0.3560
     2.5967   2.8075   4.2303   4.5211

     occupation numbers 
     1.0000   1.0000   1.0000   1.0000   1.0000   1.0000   1.0000   1.0000
     1.0000   1.0000   1.0000   1.0000   1.0000   1.0000   1.0000   0.0000
     0.0000   0.0000   0.0000   0.0000

          k = 0.0000 0.3849 0.0000 ( 11020 PWs)   bands (ev):

   -29.4157 -29.3640 -29.3257 -29.2929 -29.2664 -29.2292 -29.2131 -29.1891
   -29.1705 -29.1137 -11.4356  -7.8978  -4.1675  -2.1986  -1.8022   0.3024
     2.1862   2.8333   4.5933   4.7127

     occupation numbers 
     1.0000   1.0000   1.0000   1.0000   1.0000   1.0000   1.0000   1.0000
     1.0000   1.0000   1.0000   1.0000   1.0000   1.0000   1.0000   0.0000
     0.0000   0.0000   0.0000   0.0000

          k = 0.0000 0.4619 0.0000 ( 11048 PWs)   bands (ev):

   -29.4141 -29.3494 -29.3185 -29.2797 -29.2574 -29.2404 -29.2218 -29.2075
   -29.1749 -29.1144 -10.9787  -8.3887  -4.1804  -2.3915  -2.1799   0.4763
     1.7882   2.8124   4.3757   5.2575

     occupation numbers 
     1.0000   1.0000   1.0000   1.0000   1.0000   1.0000   1.0000   1.0000
     1.0000   1.0000   1.0000   1.0000   1.0000   1.0000   1.0000   0.0000
     0.0000   0.0000   0.0000   0.0000

          k = 0.0000 0.5389 0.0000 ( 11058 PWs)   bands (ev):

   -29.4132 -29.3437 -29.3069 -29.2663 -29.2536 -29.2526 -29.2282 -29.2212
   -29.1762 -29.1148 -10.6068  -8.8082  -4.0774  -2.4903  -2.4767   0.6914
     1.5065   2.7906   4.1565   5.8909

     occupation numbers 
     1.0000   1.0000   1.0000   1.0000   1.0000   1.0000   1.0000   1.0000
     1.0000   1.0000   1.0000   1.0000   1.0000   1.0000   1.0000   0.0000
     0.0000   0.0000   0.0000   0.0000

          k = 0.0667 0.1155 0.0000 ( 11065 PWs)   bands (ev):

   -29.4221 -29.4151 -29.3296 -29.3256 -29.2893 -29.2053 -29.2023 -29.1693
   -29.1204 -29.1111 -12.5016  -7.3759  -2.0314  -1.6085  -1.1961   1.6661
     1.6916   2.5261   3.8216   3.8449

     occupation numbers 
     1.0000   1.0000   1.0000   1.0000   1.0000   1.0000   1.0000   1.0000
     1.0000   1.0000   1.0000   1.0000   1.0000   1.0000   1.0000   0.0000
     0.0000   0.0000   0.0000   0.0000

          k = 0.0667 0.1925 0.0000 ( 11075 PWs)   bands (ev):

   -29.4206 -29.4044 -29.3285 -29.3196 -29.2851 -29.2102 -29.2031 -29.1718
   -29.1327 -29.1118 -12.2989  -7.3779  -2.8535  -1.6427  -1.5172   1.2187
     2.1336   2.8873   3.9876   4.0943

     occupation numbers 
     1.0000   1.0000   1.0000   1.0000   1.0000   1.0000   1.0000   1.0000
     1.0000   1.0000   1.0000   1.0000   1.0000   1.0000   1.0000   0.0000
     0.0000   0.0000   0.0000   0.0000

          k = 0.0667 0.2694 0.0000 ( 11065 PWs)   bands (ev):

   -29.4186 -29.3893 -29.3274 -29.3110 -29.2783 -29.2172 -29.2049 -29.1756
   -29.1496 -29.1127 -12.0006  -7.4626  -3.5719  -2.0555  -1.4859   0.7864
     2.4498   2.8917   4.1398   4.4029

     occupation numbers 
     1.0000   1.0000   1.0000   1.0000   1.0000   1.0000   1.0000   1.0000
     1.0000   1.0000   1.0000   1.0000   1.0000   1.0000   1.0000   0.0000
     0.0000   0.0000   0.0000   0.0000

          k = 0.0667 0.3464 0.0000 ( 11049 PWs)   bands (ev):

   -29.4165 -29.3712 -29.3260 -29.3004 -29.2694 -29.2263 -29.2087 -29.1829
   -29.1666 -29.1137 -11.6170  -7.7158  -4.0255  -2.3995  -1.5984   0.5585
     2.5198   2.5860   4.4703   4.7006

     occupation numbers 
     1.0000   1.0000   1.0000   1.0000   1.0000   1.0000   1.0000   1.0000
     1.0000   1.0000   1.0000   1.0000   1.0000   1.0000   1.0000   0.0000
     0.0000   0.0000   0.0000   0.0000

          k = 0.0667 0.4234 0.0000 ( 11045 PWs)   bands (ev):

   -29.4147 -29.3536 -29.3219 -29.2883 -29.2596 -29.2371 -29.2152 -29.1995
   -29.1746 -29.1146 -11.1713  -8.1521  -4.1703  -2.6363  -1.9071   0.6097
     2.0743   2.6139   4.6054   5.0210

     occupation numbers 
     1.0000   1.0000   1.0000   1.0000   1.0000   1.0000   1.0000   1.0000
     1.0000   1.0000   1.0000   1.0000   1.0000   1.0000   1.0000   0.0000
     0.0000   0.0000   0.0000   0.0000

          k = 0.0667 0.5004 0.0000 ( 11044 PWs)   bands (ev):

   -29.4135 -29.3433 -29.3114 -29.2755 -29.2534 -29.2475 -29.2246 -29.2158
   -29.1770 -29.1152 -10.7301  -8.6411  -4.1196  -2.7356  -2.2874   0.8466
     1.6654   2.6281   4.3244   5.6363

     occupation numbers 
     1.0000   1.0000   1.0000   1.0000   1.0000   1.0000   1.0000   1.0000
     1.0000   1.0000   1.0000   1.0000   1.0000   1.0000   1.0000   0.0000
     0.0000   0.0000   0.0000   0.0000

          k = 0.0667 0.5774 0.0000 ( 11066 PWs)   bands (ev):

   -29.4130 -29.3409 -29.3032 -29.2636 -29.2628 -29.2491 -29.2258 -29.2250
   -29.1776 -29.1154 -10.5046  -8.8924  -4.0661  -2.7068  -2.5140   1.0567
     1.4132   2.6368   4.1896   6.2488

     occupation numbers 
     1.0000   1.0000   1.0000   1.0000   1.0000   1.0000   1.0000   1.0000
     1.0000   1.0000   1.0000   1.0000   1.0000   1.0000   1.0000   0.0000
     0.0000   0.0000   0.0000   0.0000

          k = 0.1333 0.2309 0.0000 ( 11081 PWs)   bands (ev):

   -29.4190 -29.3916 -29.3263 -29.3142 -29.2790 -29.2168 -29.2037 -29.1751
   -29.1469 -29.1127 -12.0494  -7.4373  -3.3868  -2.2495  -1.4727   1.3220
     1.9954   3.0546   4.2441   4.2513

     occupation numbers 
     1.0000   1.0000   1.0000   1.0000   1.0000   1.0000   1.0000   1.0000
     1.0000   1.0000   1.0000   1.0000   1.0000   1.0000   1.0000   0.0000
     0.0000   0.0000   0.0000   0.0000

          k = 0.1333 0.3079 0.0000 ( 11057 PWs)   bands (ev):

   -29.4171 -29.3748 -29.3240 -29.3070 -29.2702 -29.2257 -29.2052 -29.1806
   -29.1638 -29.1139 -11.7091  -7.6223  -3.8022  -2.7784  -1.5028   1.1247
     2.0714   2.9643   4.4370   4.6179

     occupation numbers 
     1.0000   1.0000   1.0000   1.0000   1.0000   1.0000   1.0000   1.0000
     1.0000   1.0000   1.0000   1.0000   1.0000   1.0000   1.0000   0.0000
     0.0000   0.0000   0.0000   0.0000

          k = 0.1333 0.3849 0.0000 ( 11041 PWs)   bands (ev):

   -29.4153 -29.3561 -29.3213 -29.2975 -29.2598 -29.2367 -29.2085 -29.1938
   -29.1754 -29.1151 -11.2923  -7.9797  -4.0291  -3.1152  -1.7020   1.0052
     2.0367   2.7305   4.7648   4.9693

     occupation numbers 
     1.0000   1.0000   1.0000   1.0000   1.0000   1.0000   1.0000   1.0000
     1.0000   1.0000   1.0000   1.0000   1.0000   1.0000   1.0000   0.0000
     0.0000   0.0000   0.0000   0.0000

          k = 0.1333 0.4619 0.0000 ( 11029 PWs)   bands (ev):

   -29.4138 -29.3407 -29.3145 -29.2863 -29.2519 -29.2470 -29.2169 -29.2106
   -29.1795 -29.1161 -10.8347  -8.4574  -4.1107  -3.2095  -2.0605   1.0657
     1.9157   2.5286   4.6791   5.4607

     occupation numbers 
     1.0000   1.0000   1.0000   1.0000   1.0000   1.0000   1.0000   1.0000
     1.0000   1.0000   1.0000   1.0000   1.0000   1.0000   1.0000   0.0000
     0.0000   0.0000   0.0000   0.0000

          k = 0.1333 0.5389 0.0000 ( 11043 PWs)   bands (ev):

   -29.4130 -29.3348 -29.3021 -29.2749 -29.2635 -29.2437 -29.2280 -29.2185
   -29.1811 -29.1167 -10.4529  -8.8727  -4.1412  -3.0914  -2.4256   1.1906
     1.7941   2.4310   4.4487   6.1283

     occupation numbers 
     1.0000   1.0000   1.0000   1.0000   1.0000   1.0000   1.0000   1.0000
     1.0000   1.0000   1.0000   1.0000   1.0000   1.0000   1.0000   0.0000
     0.0000   0.0000   0.0000   0.0000

          k = 0.2000 0.3464 0.0000 ( 11029 PWs)   bands (ev):

   -29.4155 -29.3570 -29.3198 -29.3021 -29.2597 -29.2367 -29.2058 -29.1918
   -29.1759 -29.1154 -11.3334  -7.9161  -3.8549  -3.4290  -1.6300   1.3843
     1.6188   3.1167   4.7857   4.9296

     occupation numbers 
     1.0000   1.0000   1.0000   1.0000   1.0000   1.0000   1.0000   1.0000
     1.0000   1.0000   1.0000   1.0000   1.0000   1.0000   1.0000   0.0000
     0.0000   0.0000   0.0000   0.0000

          k = 0.2000 0.4234 0.0000 ( 11041 PWs)   bands (ev):

   -29.4141 -29.3383 -29.3152 -29.2942 -29.2502 -29.2480 -29.2110 -29.2073
   -29.1823 -29.1169 -10.8932  -8.3361  -3.9946  -3.6352  -1.9022   1.1839
     1.6947   3.0660   5.0867   5.3973

     occupation numbers 
     1.0000   1.0000   1.0000   1.0000   1.0000   1.0000   1.0000   1.0000
     1.0000   1.0000   1.0000   1.0000   1.0000   1.0000   1.0000   0.0000
     0.0000   0.0000   0.0000   0.0000

          k = 0.2000 0.5004 0.0000 ( 11044 PWs)   bands (ev):

   -29.4131 -29.3264 -29.3051 -29.2840 -29.2639 -29.2397 -29.2292 -29.2110
   -29.1857 -29.1179 -10.4423  -8.7999  -4.2719  -3.3754  -2.2712   0.9419
     2.0347   2.8025   4.9950   5.9866

     occupation numbers 
     1.0000   1.0000   1.0000   1.0000   1.0000   1.0000   1.0000   1.0000
     1.0000   1.0000   1.0000   1.0000   1.0000   1.0000   1.0000   0.0000
     0.0000   0.0000   0.0000   0.0000

          k = 0.2000 0.5774 0.0000 ( 11068 PWs)   bands (ev):

   -29.4127 -29.3239 -29.2940 -29.2779 -29.2738 -29.2431 -29.2313 -29.2137
   -29.1868 -29.1183 -10.1915  -9.0601  -4.3681  -3.1699  -2.5131   0.8614
     2.3953   2.4633   4.9015   6.2917

     occupation numbers 
     1.0000   1.0000   1.0000   1.0000   1.0000   1.0000   1.0000   1.0000
     1.0000   1.0000   1.0000   1.0000   1.0000   1.0000   1.0000   0.0000
     0.0000   0.0000   0.0000   0.0000

          k = 0.2667 0.4619 0.0000 ( 11017 PWs)   bands (ev):

   -29.4131 -29.3200 -29.3096 -29.2872 -29.2641 -29.2383 -29.2295 -29.2072
   -29.1885 -29.1185 -10.4434  -8.7612  -4.3405  -3.4687  -2.1943   0.8216
     2.0086   3.1340   5.6901   5.8455

     occupation numbers 
     1.0000   1.0000   1.0000   1.0000   1.0000   1.0000   1.0000   1.0000
     1.0000   1.0000   1.0000   1.0000   1.0000   1.0000   1.0000   0.0000
     0.0000   0.0000   0.0000   0.0000

          k = 0.2667 0.5389 0.0000 ( 11016 PWs)   bands (ev):

   -29.4126 -29.3112 -29.2980 -29.2803 -29.2756 -29.2468 -29.2313 -29.2070
   -29.1929 -29.1194 -10.0172  -9.1770  -4.5771  -3.1411  -2.5245   0.5794
     2.4130   2.9037   5.7478   5.9258

     occupation numbers 
     1.0000   1.0000   1.0000   1.0000   1.0000   1.0000   1.0000   1.0000
     1.0000   1.0000   1.0000   1.0000   1.0000   1.0000   1.0000   0.0000
     0.0000   0.0000   0.0000   0.0000

          k = 0.3333 0.5774 0.0000 ( 11010 PWs)   bands (ev):

   -29.4124 -29.2979 -29.2949 -29.2941 -29.2632 -29.2623 -29.2291 -29.2007
   -29.2002 -29.1199  -9.5872  -9.5870  -4.7023  -2.8228  -2.8227   0.4308
     2.7399   2.7402   5.7272   6.6715

     occupation numbers 
     1.0000   1.0000   1.0000   1.0000   1.0000   1.0000   1.0000   1.0000
     1.0000   1.0000   1.0000   1.0000   1.0000   1.0000   1.0000   0.0000
     0.0000   0.0000   0.0000   0.0000

     highest occupied, lowest unoccupied level (ev):    -0.7938    0.3024

!    total energy              =    -369.10336951 Ry
     estimated scf accuracy    <       0.00000019 Ry

     The total energy is the sum of the following terms:
     one-electron contribution =    -821.52933746 Ry
     hartree contribution      =     416.15885253 Ry
     xc contribution           =     -86.72552451 Ry
     ewald contribution        =     122.99263992 Ry

     convergence has been achieved in   7 iterations

     negative rho (up, down):  3.763E-06 0.000E+00

     Forces acting on atoms (cartesian axes, Ry/au):

     atom    1 type  1   force =     0.00000000    0.00000000   -0.00026034
     atom    2 type  1   force =     0.00000000   -0.00000000    0.00026034
     The non-local contrib.  to forces
     atom    1 type  1   force =     0.00000000   -0.00000000    0.49248175
     atom    2 type  1   force =     0.00000000    0.00000000   -0.49255379
     The ionic contribution  to forces
     atom    1 type  1   force =    -0.00000001    0.00000001  -37.11179733
     atom    2 type  1   force =     0.00000001   -0.00000001   37.11179733
     The local contribution  to forces
     atom    1 type  1   force =    -0.00000000   -0.00000000   36.61856171
     atom    2 type  1   force =     0.00000040   -0.00000023  -36.61647593
     The core correction contribution to forces
     atom    1 type  1   force =     0.00000000   -0.00000000    0.00147507
     atom    2 type  1   force =     0.00000003   -0.00000002   -0.00144637
     The Hubbard contrib.    to forces
     atom    1 type  1   force =     0.00000000    0.00000000    0.00000000
     atom    2 type  1   force =     0.00000000    0.00000000    0.00000000
     The SCF correction term to forces
     atom    1 type  1   force =     0.00000000   -0.00000000   -0.00000000
     atom    2 type  1   force =    -0.00000000    0.00000000   -0.00169159

     Total force =     0.000260     Total SCF correction =     0.001692
     SCF correction compared to forces is large: reduce conv_thr to get better values


     Computing stress (Cartesian axis) and pressure


     negative rho (up, down):  3.763E-06 0.000E+00
          total   stress  (Ry/bohr**3)                   (kbar)     P=       -0.57
  -0.00000406   0.00000000   0.00000000           -0.60        0.00        0.00
   0.00000000  -0.00000406  -0.00000000            0.00       -0.60       -0.00
   0.00000000   0.00000000  -0.00000347            0.00        0.00       -0.51

     kinetic stress (kbar)   4979.40     -0.00      0.00
                               -0.00   4979.40     -0.00
                                0.00     -0.00   5004.89

     local   stress (kbar) -67221.10      0.00     -0.00
                                0.00 -67221.10      0.00
                               -0.00      0.00  68004.70

     nonloc. stress (kbar)     92.94      0.00      0.00
                                0.00     92.94      0.00
                                0.00      0.00    110.79

     hartree stress (kbar)  36302.40      0.00      0.00
                                0.00  36302.40     -0.00
                                0.00     -0.00 -29128.57

     exc-cor stress (kbar)   3014.15      0.00      0.00
                                0.00   3014.15      0.00
                                0.00      0.00   3014.15

     corecor stress (kbar)  -4730.56      0.00      0.00
                                0.00  -4730.56     -0.00
                                0.00     -0.00  -4731.21

     ewald   stress (kbar)  27562.17     -0.00      0.00
                               -0.00  27562.17     -0.00
                                0.00     -0.00 -42275.26

     hubbard stress (kbar)      0.00      0.00      0.00
                                0.00      0.00      0.00
                                0.00      0.00      0.00

     DFT-D   stress (kbar)      0.00      0.00      0.00
                                0.00      0.00      0.00
                                0.00      0.00      0.00

     XDM     stress (kbar)      0.00      0.00      0.00
                                0.00      0.00      0.00
                                0.00      0.00      0.00

     dft-nl  stress (kbar)      0.00      0.00      0.00
                                0.00      0.00      0.00
                                0.00      0.00      0.00

     TS-vdW  stress (kbar)      0.00      0.00      0.00
                                0.00      0.00      0.00
                                0.00      0.00      0.00



     BFGS Geometry Optimization
     Energy error            =      0.0E+00
     Gradient error          =      2.6E-04
     Cell gradient error     =      4.1E-06


     number of scf cycles    =   1
     number of bfgs steps    =   0

     enthalpy new            =    -369.1033695136 Ry

     new trust radius        =       0.0007609547 bohr
     new conv_thr            =       0.0000010000 Ry

     new unit-cell volume =   1407.81904 a.u.^3 (   208.61726 Ang^3 )
     density =      0.19121 g/cm^3

CELL_PARAMETERS (alat=  7.57368216)
   0.999898606   0.000000000   0.000000000
  -0.499949303   0.865937594   0.000000000
   0.000000000   0.000000000   3.742683055

ATOMIC_POSITIONS (crystal)
Sb            0.0000000000        0.0000000000        0.5000000000    0   0   0
Sb            0.3333333330        0.6666666670        0.6085091844



     Writing output data file ./tmp/Sb.save/
     NEW-OLD atomic charge density approx. for the potential

     negative rho (up, down):  5.740E-06 0.000E+00
     extrapolated charge   29.99432, renormalised to   30.00000

     total cpu time spent up to now is       28.5 secs

     Self-consistent Calculation

     iteration #  1     ecut=    60.00 Ry     beta= 0.70
     Davidson diagonalization with overlap
     ethr =  1.00E-06,  avg # of iterations =  2.7

     Threshold (ethr) on eigenvalues was too large:
     Diagonalizing with lowered threshold

     Davidson diagonalization with overlap
     ethr =  6.27E-08,  avg # of iterations =  1.0

     negative rho (up, down):  4.482E-06 0.000E+00

     total cpu time spent up to now is       33.2 secs

     total energy              =    -369.10334324 Ry
     estimated scf accuracy    <       0.00001920 Ry

     iteration #  2     ecut=    60.00 Ry     beta= 0.70
     Davidson diagonalization with overlap
     ethr =  6.40E-08,  avg # of iterations =  3.5

     negative rho (up, down):  4.034E-06 0.000E+00

     total cpu time spent up to now is       36.2 secs

     total energy              =    -369.10336834 Ry
     estimated scf accuracy    <       0.00004232 Ry

     iteration #  3     ecut=    60.00 Ry     beta= 0.70
     Davidson diagonalization with overlap
     ethr =  6.40E-08,  avg # of iterations =  2.0

     negative rho (up, down):  3.920E-06 0.000E+00

     total cpu time spent up to now is       38.6 secs

     total energy              =    -369.10337145 Ry
     estimated scf accuracy    <       0.00000796 Ry

     iteration #  4     ecut=    60.00 Ry     beta= 0.70
     Davidson diagonalization with overlap
     ethr =  2.65E-08,  avg # of iterations =  1.0

     negative rho (up, down):  3.865E-06 0.000E+00

     total cpu time spent up to now is       41.2 secs

     total energy              =    -369.10337072 Ry
     estimated scf accuracy    <       0.00000412 Ry

     iteration #  5     ecut=    60.00 Ry     beta= 0.70
     Davidson diagonalization with overlap
     ethr =  1.37E-08,  avg # of iterations =  1.0

     negative rho (up, down):  3.842E-06 0.000E+00

     total cpu time spent up to now is       43.6 secs

     total energy              =    -369.10337049 Ry
     estimated scf accuracy    <       0.00000166 Ry

     iteration #  6     ecut=    60.00 Ry     beta= 0.70
     Davidson diagonalization with overlap
     ethr =  5.54E-09,  avg # of iterations =  1.0

     negative rho (up, down):  3.785E-06 0.000E+00

     total cpu time spent up to now is       45.9 secs

     End of self-consistent calculation

          k = 0.0000 0.0000 0.0000 ( 11133 PWs)   bands (ev):

   -29.4146 -29.4146 -29.3217 -29.3217 -29.2837 -29.1930 -29.1930 -29.1588
   -29.1018 -29.1018 -12.6494  -7.3948  -1.6827  -0.7858  -0.7858   0.8925
     2.0629   2.0629   3.6016   3.6864

     occupation numbers 
     1.0000   1.0000   1.0000   1.0000   1.0000   1.0000   1.0000   1.0000
     1.0000   1.0000   1.0000   1.0000   1.0000   1.0000   1.0000   0.0000
     0.0000   0.0000   0.0000   0.0000

          k = 0.0000 0.0770 0.0000 ( 11083 PWs)   bands (ev):

   -29.4142 -29.4118 -29.3214 -29.3200 -29.2828 -29.1941 -29.1931 -29.1595
   -29.1051 -29.1020 -12.5980  -7.3844  -1.6546  -1.3545  -0.9122   1.3064
     1.9572   2.1832   3.6769   3.7439

     occupation numbers 
     1.0000   1.0000   1.0000   1.0000   1.0000   1.0000   1.0000   1.0000
     1.0000   1.0000   1.0000   1.0000   1.0000   1.0000   1.0000   0.0000
     0.0000   0.0000   0.0000   0.0000

          k = 0.0000 0.1540 0.0000 ( 11068 PWs)   bands (ev):

   -29.4129 -29.4037 -29.3208 -29.3149 -29.2799 -29.1976 -29.1938 -29.1614
   -29.1148 -29.1025 -12.4447  -7.3672  -2.3114  -1.5822  -1.2163   1.1832
     2.3672   2.4470   3.8493   3.9371

     occupation numbers 
     1.0000   1.0000   1.0000   1.0000   1.0000   1.0000   1.0000   1.0000
     1.0000   1.0000   1.0000   1.0000   1.0000   1.0000   1.0000   0.0000
     0.0000   0.0000   0.0000   0.0000

          k = 0.0000 0.2310 0.0000 ( 11042 PWs)   bands (ev):

   -29.4111 -29.3906 -29.3201 -29.3068 -29.2746 -29.2032 -29.1954 -29.1644
   -29.1299 -29.1032 -12.1927  -7.3910  -3.2009  -1.5765  -1.5117   0.7048
     2.6874   2.7515   3.9924   4.2326

     occupation numbers 
     1.0000   1.0000   1.0000   1.0000   1.0000   1.0000   1.0000   1.0000
     1.0000   1.0000   1.0000   1.0000   1.0000   1.0000   1.0000   0.0000
     0.0000   0.0000   0.0000   0.0000

          k = 0.0000 0.3080 0.0000 ( 11056 PWs)   bands (ev):

   -29.4090 -29.3737 -29.3192 -29.2963 -29.2670 -29.2109 -29.1987 -29.1691
   -29.1482 -29.1041 -11.8491  -7.5419  -3.8516  -1.9150  -1.5486   0.3621
     2.6030   2.8145   4.2345   4.5246

     occupation numbers 
     1.0000   1.0000   1.0000   1.0000   1.0000   1.0000   1.0000   1.0000
     1.0000   1.0000   1.0000   1.0000   1.0000   1.0000   1.0000   0.0000
     0.0000   0.0000   0.0000   0.0000

          k = 0.0000 0.3849 0.0000 ( 11020 PWs)   bands (ev):

   -29.4070 -29.3552 -29.3170 -29.2841 -29.2578 -29.2204 -29.2044 -29.1804
   -29.1619 -29.1049 -11.4292  -7.8910  -4.1622  -2.1912  -1.7969   0.3081
     2.1921   2.8400   4.5978   4.7168

     occupation numbers 
     1.0000   1.0000   1.0000   1.0000   1.0000   1.0000   1.0000   1.0000
     1.0000   1.0000   1.0000   1.0000   1.0000   1.0000   1.0000   0.0000
     0.0000   0.0000   0.0000   0.0000

          k = 0.0000 0.4619 0.0000 ( 11048 PWs)   bands (ev):

   -29.4053 -29.3406 -29.3099 -29.2709 -29.2487 -29.2315 -29.2131 -29.1988
   -29.1663 -29.1056 -10.9721  -8.3818  -4.1752  -2.3842  -2.1746   0.4822
     1.7936   2.8189   4.3802   5.2617

     occupation numbers 
     1.0000   1.0000   1.0000   1.0000   1.0000   1.0000   1.0000   1.0000
     1.0000   1.0000   1.0000   1.0000   1.0000   1.0000   1.0000   0.0000
     0.0000   0.0000   0.0000   0.0000

          k = 0.0000 0.5389 0.0000 ( 11058 PWs)   bands (ev):

   -29.4044 -29.3349 -29.2983 -29.2575 -29.2448 -29.2438 -29.2196 -29.2126
   -29.1676 -29.1060 -10.6001  -8.8014  -4.0722  -2.4830  -2.4717   0.6979
     1.5112   2.7970   4.1609   5.8952

     occupation numbers 
     1.0000   1.0000   1.0000   1.0000   1.0000   1.0000   1.0000   1.0000
     1.0000   1.0000   1.0000   1.0000   1.0000   1.0000   1.0000   0.0000
     0.0000   0.0000   0.0000   0.0000

          k = 0.0667 0.1155 0.0000 ( 11065 PWs)   bands (ev):

   -29.4133 -29.4063 -29.3208 -29.3168 -29.2808 -29.1965 -29.1934 -29.1608
   -29.1116 -29.1023 -12.4956  -7.3704  -2.0240  -1.6044  -1.1884   1.6740
     1.6987   2.5336   3.8263   3.8476

     occupation numbers 
     1.0000   1.0000   1.0000   1.0000   1.0000   1.0000   1.0000   1.0000
     1.0000   1.0000   1.0000   1.0000   1.0000   1.0000   1.0000   0.0000
     0.0000   0.0000   0.0000   0.0000

          k = 0.0667 0.1925 0.0000 ( 11075 PWs)   bands (ev):

   -29.4118 -29.3957 -29.3197 -29.3108 -29.2766 -29.2014 -29.1942 -29.1633
   -29.1240 -29.1030 -12.2928  -7.3721  -2.8467  -1.6355  -1.5125   1.2257
     2.1411   2.8943   3.9915   4.0982

     occupation numbers 
     1.0000   1.0000   1.0000   1.0000   1.0000   1.0000   1.0000   1.0000
     1.0000   1.0000   1.0000   1.0000   1.0000   1.0000   1.0000   0.0000
     0.0000   0.0000   0.0000   0.0000

          k = 0.0667 0.2695 0.0000 ( 11065 PWs)   bands (ev):

   -29.4099 -29.3806 -29.3186 -29.3022 -29.2697 -29.2084 -29.1961 -29.1670
   -29.1409 -29.1039 -11.9945  -7.4563  -3.5657  -2.0483  -1.4811   0.7929
     2.4569   2.8983   4.1440   4.4064

     occupation numbers 
     1.0000   1.0000   1.0000   1.0000   1.0000   1.0000   1.0000   1.0000
     1.0000   1.0000   1.0000   1.0000   1.0000   1.0000   1.0000   0.0000
     0.0000   0.0000   0.0000   0.0000

          k = 0.0667 0.3464 0.0000 ( 11049 PWs)   bands (ev):

   -29.4078 -29.3624 -29.3172 -29.2916 -29.2608 -29.2175 -29.1999 -29.1742
   -29.1580 -29.1049 -11.6107  -7.7091  -4.0200  -2.3924  -1.5933   0.5644
     2.5261   2.5926   4.4745   4.7046

     occupation numbers 
     1.0000   1.0000   1.0000   1.0000   1.0000   1.0000   1.0000   1.0000
     1.0000   1.0000   1.0000   1.0000   1.0000   1.0000   1.0000   0.0000
     0.0000   0.0000   0.0000   0.0000

          k = 0.0667 0.4234 0.0000 ( 11045 PWs)   bands (ev):

   -29.4060 -29.3448 -29.3132 -29.2795 -29.2509 -29.2283 -29.2065 -29.1907
   -29.1660 -29.1058 -11.1648  -8.1452  -4.1650  -2.6294  -1.9017   0.6154
     2.0802   2.6202   4.6101   5.0252

     occupation numbers 
     1.0000   1.0000   1.0000   1.0000   1.0000   1.0000   1.0000   1.0000
     1.0000   1.0000   1.0000   1.0000   1.0000   1.0000   1.0000   0.0000
     0.0000   0.0000   0.0000   0.0000

          k = 0.0667 0.5004 0.0000 ( 11044 PWs)   bands (ev):

   -29.4047 -29.3345 -29.3027 -29.2667 -29.2446 -29.2388 -29.2159 -29.2071
   -29.1684 -29.1064 -10.7235  -8.6342  -4.1143  -2.7288  -2.2820   0.8526
     1.6709   2.6342   4.3289   5.6406

     occupation numbers 
     1.0000   1.0000   1.0000   1.0000   1.0000   1.0000   1.0000   1.0000
     1.0000   1.0000   1.0000   1.0000   1.0000   1.0000   1.0000   0.0000
     0.0000   0.0000   0.0000   0.0000

          k = 0.0667 0.5774 0.0000 ( 11066 PWs)   bands (ev):

   -29.4043 -29.3320 -29.2946 -29.2545 -29.2543 -29.2403 -29.2168 -29.2167
   -29.1690 -29.1066 -10.4979  -8.8856  -4.0607  -2.6998  -2.5090   1.0635
     1.4179   2.6429   4.1940   6.2535

     occupation numbers 
     1.0000   1.0000   1.0000   1.0000   1.0000   1.0000   1.0000   1.0000
     1.0000   1.0000   1.0000   1.0000   1.0000   1.0000   1.0000   0.0000
     0.0000   0.0000   0.0000   0.0000

          k = 0.1333 0.2310 0.0000 ( 11081 PWs)   bands (ev):

   -29.4102 -29.3829 -29.3175 -29.3054 -29.2704 -29.2079 -29.1949 -29.1665
   -29.1382 -29.1040 -12.0433  -7.4311  -3.3805  -2.2424  -1.4680   1.3284
     2.0027   3.0613   4.2479   4.2560

     occupation numbers 
     1.0000   1.0000   1.0000   1.0000   1.0000   1.0000   1.0000   1.0000
     1.0000   1.0000   1.0000   1.0000   1.0000   1.0000   1.0000   0.0000
     0.0000   0.0000   0.0000   0.0000

          k = 0.1333 0.3080 0.0000 ( 11057 PWs)   bands (ev):

   -29.4084 -29.3661 -29.3152 -29.2983 -29.2616 -29.2169 -29.1964 -29.1719
   -29.1551 -29.1051 -11.7028  -7.6157  -3.7964  -2.7716  -1.4978   1.1307
     2.0779   2.9712   4.4415   4.6223

     occupation numbers 
     1.0000   1.0000   1.0000   1.0000   1.0000   1.0000   1.0000   1.0000
     1.0000   1.0000   1.0000   1.0000   1.0000   1.0000   1.0000   0.0000
     0.0000   0.0000   0.0000   0.0000

          k = 0.1333 0.3849 0.0000 ( 11041 PWs)   bands (ev):

   -29.4066 -29.3473 -29.3126 -29.2888 -29.2511 -29.2278 -29.1998 -29.1851
   -29.1668 -29.1063 -11.2858  -7.9728  -4.0237  -3.1085  -1.6967   1.0106
     2.0426   2.7374   4.7697   4.9735

     occupation numbers 
     1.0000   1.0000   1.0000   1.0000   1.0000   1.0000   1.0000   1.0000
     1.0000   1.0000   1.0000   1.0000   1.0000   1.0000   1.0000   0.0000
     0.0000   0.0000   0.0000   0.0000

          k = 0.1333 0.4619 0.0000 ( 11029 PWs)   bands (ev):

   -29.4051 -29.3319 -29.3058 -29.2775 -29.2431 -29.2382 -29.2082 -29.2020
   -29.1709 -29.1073 -10.8281  -8.4504  -4.1053  -3.2031  -2.0551   1.0709
     1.9218   2.5349   4.6842   5.4649

     occupation numbers 
     1.0000   1.0000   1.0000   1.0000   1.0000   1.0000   1.0000   1.0000
     1.0000   1.0000   1.0000   1.0000   1.0000   1.0000   1.0000   0.0000
     0.0000   0.0000   0.0000   0.0000

          k = 0.1333 0.5389 0.0000 ( 11043 PWs)   bands (ev):

   -29.4043 -29.3259 -29.2935 -29.2661 -29.2547 -29.2349 -29.2193 -29.2099
   -29.1724 -29.1079 -10.4461  -8.8659  -4.1355  -3.0852  -2.4204   1.1956
     1.8009   2.4365   4.4535   6.1326

     occupation numbers 
     1.0000   1.0000   1.0000   1.0000   1.0000   1.0000   1.0000   1.0000
     1.0000   1.0000   1.0000   1.0000   1.0000   1.0000   1.0000   0.0000
     0.0000   0.0000   0.0000   0.0000

          k = 0.2000 0.3464 0.0000 ( 11029 PWs)   bands (ev):

   -29.4068 -29.3482 -29.3110 -29.2934 -29.2510 -29.2279 -29.1970 -29.1831
   -29.1673 -29.1066 -11.3270  -7.9092  -3.8495  -3.4224  -1.6247   1.3896
     1.6246   3.1239   4.7915   4.9340

     occupation numbers 
     1.0000   1.0000   1.0000   1.0000   1.0000   1.0000   1.0000   1.0000
     1.0000   1.0000   1.0000   1.0000   1.0000   1.0000   1.0000   0.0000
     0.0000   0.0000   0.0000   0.0000

          k = 0.2000 0.4234 0.0000 ( 11041 PWs)   bands (ev):

   -29.4053 -29.3295 -29.3065 -29.2855 -29.2413 -29.2393 -29.2022 -29.1986
   -29.1737 -29.1081 -10.8867  -8.3290  -3.9886  -3.6296  -1.8968   1.1891
     1.6999   3.0729   5.0927   5.4015

     occupation numbers 
     1.0000   1.0000   1.0000   1.0000   1.0000   1.0000   1.0000   1.0000
     1.0000   1.0000   1.0000   1.0000   1.0000   1.0000   1.0000   0.0000
     0.0000   0.0000   0.0000   0.0000

          k = 0.2000 0.5004 0.0000 ( 11044 PWs)   bands (ev):

   -29.4043 -29.3175 -29.2963 -29.2753 -29.2551 -29.2309 -29.2205 -29.2024
   -29.1771 -29.1091 -10.4356  -8.7929  -4.2658  -3.3700  -2.2659   0.9470
     2.0400   2.8089   5.0007   5.9910

     occupation numbers 
     1.0000   1.0000   1.0000   1.0000   1.0000   1.0000   1.0000   1.0000
     1.0000   1.0000   1.0000   1.0000   1.0000   1.0000   1.0000   0.0000
     0.0000   0.0000   0.0000   0.0000

          k = 0.2000 0.5774 0.0000 ( 11068 PWs)   bands (ev):

   -29.4040 -29.3150 -29.2853 -29.2690 -29.2651 -29.2343 -29.2226 -29.2051
   -29.1782 -29.1095 -10.1847  -9.0532  -4.3620  -3.1644  -2.5079   0.8664
     2.4004   2.4698   4.9072   6.2964

     occupation numbers 
     1.0000   1.0000   1.0000   1.0000   1.0000   1.0000   1.0000   1.0000
     1.0000   1.0000   1.0000   1.0000   1.0000   1.0000   1.0000   0.0000
     0.0000   0.0000   0.0000   0.0000

          k = 0.2667 0.4619 0.0000 ( 11017 PWs)   bands (ev):

   -29.4044 -29.3112 -29.3008 -29.2785 -29.2553 -29.2295 -29.2208 -29.1985
   -29.1799 -29.1097 -10.4367  -8.7541  -4.3343  -3.4635  -2.1889   0.8267
     2.0135   3.1404   5.6970   5.8501

     occupation numbers 
     1.0000   1.0000   1.0000   1.0000   1.0000   1.0000   1.0000   1.0000
     1.0000   1.0000   1.0000   1.0000   1.0000   1.0000   1.0000   0.0000
     0.0000   0.0000   0.0000   0.0000

          k = 0.2667 0.5389 0.0000 ( 11016 PWs)   bands (ev):

   -29.4038 -29.3023 -29.2892 -29.2715 -29.2669 -29.2381 -29.2225 -29.1984
   -29.1843 -29.1106 -10.0104  -9.1700  -4.5710  -3.1357  -2.5192   0.5843
     2.4180   2.9095   5.7540   5.9308

     occupation numbers 
     1.0000   1.0000   1.0000   1.0000   1.0000   1.0000   1.0000   1.0000
     1.0000   1.0000   1.0000   1.0000   1.0000   1.0000   1.0000   0.0000
     0.0000   0.0000   0.0000   0.0000

          k = 0.3334 0.5774 0.0000 ( 11010 PWs)   bands (ev):

   -29.4036 -29.2891 -29.2857 -29.2856 -29.2541 -29.2540 -29.2202 -29.1919
   -29.1918 -29.1112  -9.5802  -9.5802  -4.6963  -2.8174  -2.8174   0.4356
     2.7453   2.7453   5.7314   6.6782

     occupation numbers 
     1.0000   1.0000   1.0000   1.0000   1.0000   1.0000   1.0000   1.0000
     1.0000   1.0000   1.0000   1.0000   1.0000   1.0000   1.0000   0.0000
     0.0000   0.0000   0.0000   0.0000

     highest occupied, lowest unoccupied level (ev):    -0.7858    0.3081

!    total energy              =    -369.10336982 Ry
     estimated scf accuracy    <       0.00000081 Ry

     The total energy is the sum of the following terms:
     one-electron contribution =    -821.60847873 Ry
     hartree contribution      =     416.19354292 Ry
     xc contribution           =     -86.72492006 Ry
     ewald contribution        =     123.03648604 Ry

     convergence has been achieved in   6 iterations

     negative rho (up, down):  3.785E-06 0.000E+00

     Forces acting on atoms (cartesian axes, Ry/au):

     atom    1 type  1   force =     0.00000000    0.00000000    0.00121410
     atom    2 type  1   force =     0.00000000    0.00000000   -0.00121410
     The non-local contrib.  to forces
     atom    1 type  1   force =     0.00000000    0.00000000    0.49335738
     atom    2 type  1   force =     0.00000000    0.00000000   -0.49341782
     The ionic contribution  to forces
     atom    1 type  1   force =    -0.00000001    0.00000001  -37.12185991
     atom    2 type  1   force =     0.00000001   -0.00000001   37.12185991
     The local contribution  to forces
     atom    1 type  1   force =     0.00000000   -0.00000000   36.62517531
     atom    2 type  1   force =     0.00000040   -0.00000023  -36.62506088
     The core correction contribution to forces
     atom    1 type  1   force =     0.00000000   -0.00000000    0.00138906
     atom    2 type  1   force =     0.00000003   -0.00000002   -0.00138514
     The Hubbard contrib.    to forces
     atom    1 type  1   force =     0.00000000    0.00000000    0.00000000
     atom    2 type  1   force =     0.00000000    0.00000000    0.00000000
     The SCF correction term to forces
     atom    1 type  1   force =    -0.00000000    0.00000000    0.00000000
     atom    2 type  1   force =     0.00000000   -0.00000000   -0.00324337

     Total force =     0.001214     Total SCF correction =     0.003243
     SCF correction compared to forces is large: reduce conv_thr to get better values


     Computing stress (Cartesian axis) and pressure


     negative rho (up, down):  3.785E-06 0.000E+00
          total   stress  (Ry/bohr**3)                   (kbar)     P=       -2.61
  -0.00001741  -0.00000000   0.00000000           -2.56       -0.00        0.00
  -0.00000000  -0.00001741   0.00000000           -0.00       -2.56        0.00
   0.00000000   0.00000000  -0.00001841            0.00        0.00       -2.71

     kinetic stress (kbar)   4980.41      0.00      0.00
                                0.00   4980.41      0.00
                                0.00      0.00   5005.81

     local   stress (kbar) -67244.71      0.00     -0.00
                                0.00 -67244.71      0.00
                               -0.00      0.00  68029.89

     nonloc. stress (kbar)     91.04      0.00      0.00
                                0.00     91.04      0.00
                                0.00      0.00    108.95

     hartree stress (kbar)  36314.19      0.00      0.00
                                0.00  36314.19     -0.00
                                0.00     -0.00 -29139.71

     exc-cor stress (kbar)   3014.76      0.00      0.00
                                0.00   3014.76      0.00
                                0.00      0.00   3014.76

     corecor stress (kbar)  -4731.51      0.00      0.00
                                0.00  -4731.51     -0.00
                                0.00     -0.00  -4732.16

     ewald   stress (kbar)  27573.26     -0.00      0.00
                               -0.00  27573.26     -0.00
                                0.00     -0.00 -42290.25

     hubbard stress (kbar)      0.00      0.00      0.00
                                0.00      0.00      0.00
                                0.00      0.00      0.00

     DFT-D   stress (kbar)      0.00      0.00      0.00
                                0.00      0.00      0.00
                                0.00      0.00      0.00

     XDM     stress (kbar)      0.00      0.00      0.00
                                0.00      0.00      0.00
                                0.00      0.00      0.00

     dft-nl  stress (kbar)      0.00      0.00      0.00
                                0.00      0.00      0.00
                                0.00      0.00      0.00

     TS-vdW  stress (kbar)      0.00      0.00      0.00
                                0.00      0.00      0.00
                                0.00      0.00      0.00


     Energy error            =      3.1E-07
     Gradient error          =      1.2E-03
     Cell gradient error     =      1.7E-05


     number of scf cycles    =   2
     number of bfgs steps    =   1

     enthalpy old            =    -369.1033695136 Ry
     enthalpy new            =    -369.1033698231 Ry

     CASE: enthalpy_new < enthalpy_old


     WARNING: bfgs curvature condition failed, Theta= 0.211
     new trust radius        =       0.0008370502 bohr
     new conv_thr            =       0.0000000100 Ry

     new unit-cell volume =   1407.50499 a.u.^3 (   208.57072 Ang^3 )
     density =      0.19125 g/cm^3

CELL_PARAMETERS (alat=  7.57368216)
   0.999787073   0.000000000   0.000000000
  -0.499893537   0.865841004   0.000000000
   0.000000000   0.000000000   3.742683055

ATOMIC_POSITIONS (crystal)
Sb            0.0000000000        0.0000000000        0.5000000000    0   0   0
Sb            0.3333333330        0.6666666670        0.6084986494



     Writing output data file ./tmp/Sb.save/
     NEW-OLD atomic charge density approx. for the potential

     negative rho (up, down):  5.733E-06 0.000E+00
     extrapolated charge   29.99375, renormalised to   30.00000

     total cpu time spent up to now is       51.6 secs

     Self-consistent Calculation

     iteration #  1     ecut=    60.00 Ry     beta= 0.70
     Davidson diagonalization with overlap
     ethr =  1.00E-06,  avg # of iterations =  2.4

     negative rho (up, down):  4.561E-06 0.000E+00

     total cpu time spent up to now is       54.6 secs

     total energy              =    -369.10333136 Ry
     estimated scf accuracy    <       0.00003190 Ry

     iteration #  2     ecut=    60.00 Ry     beta= 0.70
     Davidson diagonalization with overlap
     ethr =  1.06E-07,  avg # of iterations =  3.4

     negative rho (up, down):  4.102E-06 0.000E+00

     total cpu time spent up to now is       57.8 secs

     total energy              =    -369.10336719 Ry
     estimated scf accuracy    <       0.00005616 Ry

     iteration #  3     ecut=    60.00 Ry     beta= 0.70
     Davidson diagonalization with overlap
     ethr =  1.06E-07,  avg # of iterations =  2.0

     negative rho (up, down):  3.990E-06 0.000E+00

     total cpu time spent up to now is       60.3 secs

     total energy              =    -369.10337179 Ry
     estimated scf accuracy    <       0.00000763 Ry

     iteration #  4     ecut=    60.00 Ry     beta= 0.70
     Davidson diagonalization with overlap
     ethr =  2.54E-08,  avg # of iterations =  1.0

     negative rho (up, down):  3.936E-06 0.000E+00

     total cpu time spent up to now is       62.7 secs

     total energy              =    -369.10337103 Ry
     estimated scf accuracy    <       0.00000439 Ry

     iteration #  5     ecut=    60.00 Ry     beta= 0.70
     Davidson diagonalization with overlap
     ethr =  1.46E-08,  avg # of iterations =  1.0

     negative rho (up, down):  3.922E-06 0.000E+00

     total cpu time spent up to now is       65.0 secs

     total energy              =    -369.10337105 Ry
     estimated scf accuracy    <       0.00000192 Ry

     iteration #  6     ecut=    60.00 Ry     beta= 0.70
     Davidson diagonalization with overlap
     ethr =  6.42E-09,  avg # of iterations =  1.0

     negative rho (up, down):  3.914E-06 0.000E+00

     total cpu time spent up to now is       67.4 secs

     total energy              =    -369.10337100 Ry
     estimated scf accuracy    <       0.00000167 Ry

     iteration #  7     ecut=    60.00 Ry     beta= 0.70
     Davidson diagonalization with overlap
     ethr =  5.56E-09,  avg # of iterations =  1.0

     negative rho (up, down):  3.802E-06 0.000E+00

     total cpu time spent up to now is       69.8 secs

     total energy              =    -369.10337023 Ry
     estimated scf accuracy    <       0.00000152 Ry

     iteration #  8     ecut=    60.00 Ry     beta= 0.70
     Davidson diagonalization with overlap
     ethr =  5.06E-09,  avg # of iterations =  2.0

     negative rho (up, down):  3.807E-06 0.000E+00

     total cpu time spent up to now is       72.3 secs

     total energy              =    -369.10337040 Ry
     estimated scf accuracy    <       0.00000008 Ry

     iteration #  9     ecut=    60.00 Ry     beta= 0.70
     Davidson diagonalization with overlap
     ethr =  2.60E-10,  avg # of iterations =  2.0

     negative rho (up, down):  3.813E-06 0.000E+00

     total cpu time spent up to now is       74.7 secs

     total energy              =    -369.10337041 Ry
     estimated scf accuracy    <       0.00000002 Ry

     iteration # 10     ecut=    60.00 Ry     beta= 0.70
     Davidson diagonalization with overlap
     ethr =  5.80E-11,  avg # of iterations =  1.3

     negative rho (up, down):  3.838E-06 0.000E+00

     total cpu time spent up to now is       77.1 secs

     End of self-consistent calculation

          k = 0.0000 0.0000 0.0000 ( 11133 PWs)   bands (ev):

   -29.4209 -29.4209 -29.3279 -29.3279 -29.2898 -29.1990 -29.1990 -29.1648
   -29.1078 -29.1078 -12.6553  -7.3977  -1.6848  -0.7893  -0.7893   0.8904
     2.0604   2.0604   3.6015   3.6878

     occupation numbers 
     1.0000   1.0000   1.0000   1.0000   1.0000   1.0000   1.0000   1.0000
     1.0000   1.0000   1.0000   1.0000   1.0000   1.0000   1.0000   0.0000
     0.0000   0.0000   0.0000   0.0000

          k = 0.0000 0.0770 0.0000 ( 11083 PWs)   bands (ev):

   -29.4204 -29.4181 -29.3276 -29.3262 -29.2889 -29.2002 -29.1992 -29.1654
   -29.1111 -29.1080 -12.6039  -7.3872  -1.6568  -1.3581  -0.9157   1.3043
     1.9549   2.1808   3.6767   3.7452

     occupation numbers 
     1.0000   1.0000   1.0000   1.0000   1.0000   1.0000   1.0000   1.0000
     1.0000   1.0000   1.0000   1.0000   1.0000   1.0000   1.0000   0.0000
     0.0000   0.0000   0.0000   0.0000

          k = 0.0000 0.1540 0.0000 ( 11068 PWs)   bands (ev):

   -29.4192 -29.4099 -29.3270 -29.3211 -29.2859 -29.2036 -29.1999 -29.1674
   -29.1208 -29.1084 -12.4505  -7.3700  -2.3153  -1.5844  -1.2200   1.1807
     2.3658   2.4448   3.8497   3.9377

     occupation numbers 
     1.0000   1.0000   1.0000   1.0000   1.0000   1.0000   1.0000   1.0000
     1.0000   1.0000   1.0000   1.0000   1.0000   1.0000   1.0000   0.0000
     0.0000   0.0000   0.0000   0.0000

          k = 0.0000 0.2310 0.0000 ( 11042 PWs)   bands (ev):

   -29.4174 -29.3969 -29.3263 -29.3130 -29.2807 -29.2093 -29.2015 -29.1704
   -29.1359 -29.1092 -12.1985  -7.3938  -3.2051  -1.5803  -1.5138   0.7023
     2.6854   2.7502   3.9925   4.2335

     occupation numbers 
     1.0000   1.0000   1.0000   1.0000   1.0000   1.0000   1.0000   1.0000
     1.0000   1.0000   1.0000   1.0000   1.0000   1.0000   1.0000   0.0000
     0.0000   0.0000   0.0000   0.0000

          k = 0.0000 0.3080 0.0000 ( 11056 PWs)   bands (ev):

   -29.4153 -29.3799 -29.3254 -29.3025 -29.2731 -29.2170 -29.2047 -29.1751
   -29.1542 -29.1100 -11.8547  -7.5449  -3.8558  -1.9189  -1.5508   0.3596
     2.6011   2.8128   4.2346   4.5256

     occupation numbers 
     1.0000   1.0000   1.0000   1.0000   1.0000   1.0000   1.0000   1.0000
     1.0000   1.0000   1.0000   1.0000   1.0000   1.0000   1.0000   0.0000
     0.0000   0.0000   0.0000   0.0000

          k = 0.0000 0.3850 0.0000 ( 11020 PWs)   bands (ev):

   -29.4132 -29.3614 -29.3232 -29.2903 -29.2639 -29.2265 -29.2105 -29.1864
   -29.1679 -29.1109 -11.4347  -7.8944  -4.1662  -2.1952  -1.7993   0.3056
     2.1899   2.8383   4.5975   4.7174

     occupation numbers 
     1.0000   1.0000   1.0000   1.0000   1.0000   1.0000   1.0000   1.0000
     1.0000   1.0000   1.0000   1.0000   1.0000   1.0000   1.0000   0.0000
     0.0000   0.0000   0.0000   0.0000

          k = 0.0000 0.4620 0.0000 ( 11048 PWs)   bands (ev):

   -29.4116 -29.3468 -29.3160 -29.2771 -29.2548 -29.2376 -29.2191 -29.2048
   -29.1723 -29.1116 -10.9774  -8.3857  -4.1789  -2.3883  -2.1773   0.4796
     1.7916   2.8172   4.3792   5.2623

     occupation numbers 
     1.0000   1.0000   1.0000   1.0000   1.0000   1.0000   1.0000   1.0000
     1.0000   1.0000   1.0000   1.0000   1.0000   1.0000   1.0000   0.0000
     0.0000   0.0000   0.0000   0.0000

          k = 0.0000 0.5390 0.0000 ( 11058 PWs)   bands (ev):

   -29.4107 -29.3411 -29.3044 -29.2636 -29.2509 -29.2499 -29.2256 -29.2186
   -29.1736 -29.1120 -10.6052  -8.8056  -4.0756  -2.4872  -2.4744   0.6951
     1.5095   2.7954   4.1596   5.8958

     occupation numbers 
     1.0000   1.0000   1.0000   1.0000   1.0000   1.0000   1.0000   1.0000
     1.0000   1.0000   1.0000   1.0000   1.0000   1.0000   1.0000   0.0000
     0.0000   0.0000   0.0000   0.0000

          k = 0.0667 0.1155 0.0000 ( 11065 PWs)   bands (ev):

   -29.4196 -29.4126 -29.3270 -29.3230 -29.2869 -29.2026 -29.1995 -29.1667
   -29.1176 -29.1083 -12.5015  -7.3731  -2.0278  -1.6065  -1.1920   1.6720
     1.6964   2.5317   3.8261   3.8489

     occupation numbers 
     1.0000   1.0000   1.0000   1.0000   1.0000   1.0000   1.0000   1.0000
     1.0000   1.0000   1.0000   1.0000   1.0000   1.0000   1.0000   0.0000
     0.0000   0.0000   0.0000   0.0000

          k = 0.0667 0.1925 0.0000 ( 11075 PWs)   bands (ev):

   -29.4181 -29.4020 -29.3259 -29.3170 -29.2826 -29.2074 -29.2003 -29.1692
   -29.1300 -29.1090 -12.2986  -7.3749  -2.8507  -1.6391  -1.5148   1.2233
     2.1391   2.8929   3.9918   4.0987

     occupation numbers 
     1.0000   1.0000   1.0000   1.0000   1.0000   1.0000   1.0000   1.0000
     1.0000   1.0000   1.0000   1.0000   1.0000   1.0000   1.0000   0.0000
     0.0000   0.0000   0.0000   0.0000

          k = 0.0667 0.2695 0.0000 ( 11065 PWs)   bands (ev):

   -29.4162 -29.3868 -29.3248 -29.3084 -29.2758 -29.2145 -29.2022 -29.1730
   -29.1469 -29.1099 -12.0001  -7.4592  -3.5699  -2.0522  -1.4833   0.7905
     2.4551   2.8967   4.1440   4.4073

     occupation numbers 
     1.0000   1.0000   1.0000   1.0000   1.0000   1.0000   1.0000   1.0000
     1.0000   1.0000   1.0000   1.0000   1.0000   1.0000   1.0000   0.0000
     0.0000   0.0000   0.0000   0.0000

          k = 0.0667 0.3465 0.0000 ( 11049 PWs)   bands (ev):

   -29.4141 -29.3686 -29.3234 -29.2978 -29.2668 -29.2236 -29.2060 -29.1802
   -29.1640 -29.1109 -11.6162  -7.7123  -4.0241  -2.3964  -1.5956   0.5620
     2.5241   2.5908   4.4746   4.7053

     occupation numbers 
     1.0000   1.0000   1.0000   1.0000   1.0000   1.0000   1.0000   1.0000
     1.0000   1.0000   1.0000   1.0000   1.0000   1.0000   1.0000   0.0000
     0.0000   0.0000   0.0000   0.0000

          k = 0.0667 0.4235 0.0000 ( 11045 PWs)   bands (ev):

   -29.4123 -29.3510 -29.3194 -29.2856 -29.2570 -29.2344 -29.2125 -29.1968
   -29.1720 -29.1117 -11.1702  -8.1489  -4.1689  -2.6334  -1.9043   0.6130
     2.0781   2.6185   4.6093   5.0258

     occupation numbers 
     1.0000   1.0000   1.0000   1.0000   1.0000   1.0000   1.0000   1.0000
     1.0000   1.0000   1.0000   1.0000   1.0000   1.0000   1.0000   0.0000
     0.0000   0.0000   0.0000   0.0000

          k = 0.0667 0.5005 0.0000 ( 11044 PWs)   bands (ev):

   -29.4110 -29.3407 -29.3088 -29.2728 -29.2507 -29.2449 -29.2219 -29.2132
   -29.1744 -29.1124 -10.7286  -8.6383  -4.1179  -2.7329  -2.2849   0.8501
     1.6689   2.6325   4.3277   5.6412

     occupation numbers 
     1.0000   1.0000   1.0000   1.0000   1.0000   1.0000   1.0000   1.0000
     1.0000   1.0000   1.0000   1.0000   1.0000   1.0000   1.0000   0.0000
     0.0000   0.0000   0.0000   0.0000

          k = 0.0667 0.5775 0.0000 ( 11066 PWs)   bands (ev):

   -29.4106 -29.3383 -29.3007 -29.2606 -29.2604 -29.2464 -29.2229 -29.2228
   -29.1750 -29.1126 -10.5029  -8.8899  -4.0642  -2.7040  -2.5118   1.0608
     1.4162   2.6413   4.1927   6.2541

     occupation numbers 
     1.0000   1.0000   1.0000   1.0000   1.0000   1.0000   1.0000   1.0000
     1.0000   1.0000   1.0000   1.0000   1.0000   1.0000   1.0000   0.0000
     0.0000   0.0000   0.0000   0.0000

          k = 0.1334 0.2310 0.0000 ( 11081 PWs)   bands (ev):

   -29.4165 -29.3891 -29.3237 -29.3116 -29.2765 -29.2140 -29.2009 -29.1725
   -29.1442 -29.1099 -12.0490  -7.4340  -3.3846  -2.2464  -1.4702   1.3263
     2.0006   3.0600   4.2484   4.2559

     occupation numbers 
     1.0000   1.0000   1.0000   1.0000   1.0000   1.0000   1.0000   1.0000
     1.0000   1.0000   1.0000   1.0000   1.0000   1.0000   1.0000   0.0000
     0.0000   0.0000   0.0000   0.0000

          k = 0.1334 0.3080 0.0000 ( 11057 PWs)   bands (ev):

   -29.4146 -29.3723 -29.3214 -29.3044 -29.2676 -29.2230 -29.2024 -29.1779
   -29.1611 -29.1111 -11.7084  -7.6187  -3.8005  -2.7757  -1.5001   1.1286
     2.0760   2.9696   4.4413   4.6226

     occupation numbers 
     1.0000   1.0000   1.0000   1.0000   1.0000   1.0000   1.0000   1.0000
     1.0000   1.0000   1.0000   1.0000   1.0000   1.0000   1.0000   0.0000
     0.0000   0.0000   0.0000   0.0000

          k = 0.1334 0.3850 0.0000 ( 11041 PWs)   bands (ev):

   -29.4128 -29.3536 -29.3188 -29.2949 -29.2572 -29.2340 -29.2058 -29.1911
   -29.1728 -29.1123 -11.2912  -7.9762  -4.0277  -3.1127  -1.6991   1.0086
     2.0407   2.7355   4.7691   4.9740

     occupation numbers 
     1.0000   1.0000   1.0000   1.0000   1.0000   1.0000   1.0000   1.0000
     1.0000   1.0000   1.0000   1.0000   1.0000   1.0000   1.0000   0.0000
     0.0000   0.0000   0.0000   0.0000

          k = 0.1334 0.4620 0.0000 ( 11029 PWs)   bands (ev):

   -29.4114 -29.3381 -29.3120 -29.2836 -29.2492 -29.2443 -29.2142 -29.2080
   -29.1769 -29.1133 -10.8333  -8.4543  -4.1091  -3.2072  -2.0577   1.0689
     1.9198   2.5331   4.6829   5.4656

     occupation numbers 
     1.0000   1.0000   1.0000   1.0000   1.0000   1.0000   1.0000   1.0000
     1.0000   1.0000   1.0000   1.0000   1.0000   1.0000   1.0000   0.0000
     0.0000   0.0000   0.0000   0.0000

          k = 0.1334 0.5390 0.0000 ( 11043 PWs)   bands (ev):

   -29.4106 -29.3322 -29.2996 -29.2722 -29.2608 -29.2410 -29.2254 -29.2159
   -29.1784 -29.1138 -10.4511  -8.8701  -4.1394  -3.0891  -2.4232   1.1936
     1.7986   2.4350   4.4520   6.1333

     occupation numbers 
     1.0000   1.0000   1.0000   1.0000   1.0000   1.0000   1.0000   1.0000
     1.0000   1.0000   1.0000   1.0000   1.0000   1.0000   1.0000   0.0000
     0.0000   0.0000   0.0000   0.0000

          k = 0.2000 0.3465 0.0000 ( 11029 PWs)   bands (ev):

   -29.4130 -29.3544 -29.3172 -29.2995 -29.2571 -29.2340 -29.2031 -29.1891
   -29.1733 -29.1126 -11.3324  -7.9125  -3.8535  -3.4268  -1.6270   1.3879
     1.6225   3.1224   4.7903   4.9344

     occupation numbers 
     1.0000   1.0000   1.0000   1.0000   1.0000   1.0000   1.0000   1.0000
     1.0000   1.0000   1.0000   1.0000   1.0000   1.0000   1.0000   0.0000
     0.0000   0.0000   0.0000   0.0000

          k = 0.2000 0.4235 0.0000 ( 11041 PWs)   bands (ev):

   -29.4116 -29.3357 -29.3126 -29.2917 -29.2474 -29.2454 -29.2083 -29.2047
   -29.1797 -29.1141 -10.8919  -8.3328  -3.9929  -3.6335  -1.8993   1.1870
     1.6982   3.0714   5.0912   5.4022

     occupation numbers 
     1.0000   1.0000   1.0000   1.0000   1.0000   1.0000   1.0000   1.0000
     1.0000   1.0000   1.0000   1.0000   1.0000   1.0000   1.0000   0.0000
     0.0000   0.0000   0.0000   0.0000

          k = 0.2000 0.5005 0.0000 ( 11044 PWs)   bands (ev):

   -29.4106 -29.3237 -29.3025 -29.2814 -29.2612 -29.2370 -29.2265 -29.2084
   -29.1831 -29.1151 -10.4406  -8.7970  -4.2702  -3.3735  -2.2685   0.9448
     2.0385   2.8073   4.9991   5.9916

     occupation numbers 
     1.0000   1.0000   1.0000   1.0000   1.0000   1.0000   1.0000   1.0000
     1.0000   1.0000   1.0000   1.0000   1.0000   1.0000   1.0000   0.0000
     0.0000   0.0000   0.0000   0.0000

          k = 0.2000 0.5775 0.0000 ( 11068 PWs)   bands (ev):

   -29.4102 -29.3212 -29.2914 -29.2752 -29.2712 -29.2404 -29.2287 -29.2111
   -29.1842 -29.1155 -10.1895  -9.0575  -4.3665  -3.1678  -2.5106   0.8641
     2.3990   2.4681   4.9055   6.2963

     occupation numbers 
     1.0000   1.0000   1.0000   1.0000   1.0000   1.0000   1.0000   1.0000
     1.0000   1.0000   1.0000   1.0000   1.0000   1.0000   1.0000   0.0000
     0.0000   0.0000   0.0000   0.0000

          k = 0.2667 0.4620 0.0000 ( 11017 PWs)   bands (ev):

   -29.4106 -29.3174 -29.3070 -29.2846 -29.2614 -29.2356 -29.2269 -29.2046
   -29.1859 -29.1157 -10.4417  -8.7582  -4.3390  -3.4669  -2.1915   0.8243
     2.0121   3.1392   5.6953   5.8504

     occupation numbers 
     1.0000   1.0000   1.0000   1.0000   1.0000   1.0000   1.0000   1.0000
     1.0000   1.0000   1.0000   1.0000   1.0000   1.0000   1.0000   0.0000
     0.0000   0.0000   0.0000   0.0000

          k = 0.2667 0.5390 0.0000 ( 11016 PWs)   bands (ev):

   -29.4101 -29.3085 -29.2954 -29.2777 -29.2730 -29.2442 -29.2286 -29.2044
   -29.1903 -29.1166 -10.0151  -9.1743  -4.5758  -3.1389  -2.5220   0.5819
     2.4167   2.9083   5.7527   5.9302

     occupation numbers 
     1.0000   1.0000   1.0000   1.0000   1.0000   1.0000   1.0000   1.0000
     1.0000   1.0000   1.0000   1.0000   1.0000   1.0000   1.0000   0.0000
     0.0000   0.0000   0.0000   0.0000

          k = 0.3334 0.5775 0.0000 ( 11010 PWs)   bands (ev):

   -29.4099 -29.2953 -29.2919 -29.2918 -29.2602 -29.2601 -29.2263 -29.1979
   -29.1979 -29.1171  -9.5847  -9.5847  -4.7012  -2.8204  -2.8204   0.4331
     2.7441   2.7441   5.7312   6.6776

     occupation numbers 
     1.0000   1.0000   1.0000   1.0000   1.0000   1.0000   1.0000   1.0000
     1.0000   1.0000   1.0000   1.0000   1.0000   1.0000   1.0000   0.0000
     0.0000   0.0000   0.0000   0.0000

     highest occupied, lowest unoccupied level (ev):    -0.7893    0.3056

!    total energy              =    -369.10337040 Ry
     estimated scf accuracy    <          8.8E-09 Ry

     The total energy is the sum of the following terms:
     one-electron contribution =    -821.76218845 Ry
     hartree contribution      =     416.27869189 Ry
     xc contribution           =     -86.72632840 Ry
     ewald contribution        =     123.10645456 Ry

     convergence has been achieved in  10 iterations

     negative rho (up, down):  3.838E-06 0.000E+00

     Forces acting on atoms (cartesian axes, Ry/au):

     atom    1 type  1   force =     0.00000000   -0.00000000    0.00017383
     atom    2 type  1   force =     0.00000000    0.00000000   -0.00017383
     The non-local contrib.  to forces
     atom    1 type  1   force =     0.00000000    0.00000000    0.49257359
     atom    2 type  1   force =     0.00000000    0.00000000   -0.49259928
     The ionic contribution  to forces
     atom    1 type  1   force =    -0.00000001    0.00000001  -37.13162087
     atom    2 type  1   force =     0.00000001   -0.00000001   37.13162087
     The local contribution  to forces
     atom    1 type  1   force =    -0.00000000   -0.00000000   36.63712537
     atom    2 type  1   force =     0.00000040   -0.00000023  -36.63707337
     The core correction contribution to forces
     atom    1 type  1   force =    -0.00000000    0.00000000    0.00143976
     atom    2 type  1   force =     0.00000003   -0.00000002   -0.00143791
     The Hubbard contrib.    to forces
     atom    1 type  1   force =     0.00000000    0.00000000    0.00000000
     atom    2 type  1   force =     0.00000000    0.00000000    0.00000000
     The SCF correction term to forces
     atom    1 type  1   force =     0.00000000   -0.00000000    0.00000000
     atom    2 type  1   force =    -0.00000000    0.00000000   -0.00070324

     Total force =     0.000174     Total SCF correction =     0.000703
     SCF correction compared to forces is large: reduce conv_thr to get better values


     Computing stress (Cartesian axis) and pressure


     negative rho (up, down):  3.838E-06 0.000E+00
          total   stress  (Ry/bohr**3)                   (kbar)     P=       -0.27
  -0.00000198   0.00000000   0.00000000           -0.29        0.00        0.00
   0.00000000  -0.00000198   0.00000000            0.00       -0.29        0.00
   0.00000000  -0.00000000  -0.00000154            0.00       -0.00       -0.23

     kinetic stress (kbar)   4981.61      0.00      0.00
                                0.00   4981.61      0.00
                                0.00     -0.00   5007.07

     local   stress (kbar) -67278.07      0.00     -0.00
                                0.00 -67278.07      0.00
                               -0.00      0.00  68066.07

     nonloc. stress (kbar)     93.18      0.00      0.00
                                0.00     93.18      0.00
                                0.00      0.00    111.06

     hartree stress (kbar)  36331.85      0.00     -0.00
                                0.00  36331.85     -0.00
                               -0.00     -0.00 -29156.42

     exc-cor stress (kbar)   3015.41      0.00      0.00
                                0.00   3015.41      0.00
                                0.00      0.00   3015.41

     corecor stress (kbar)  -4732.58      0.00      0.00
                                0.00  -4732.58     -0.00
                                0.00     -0.00  -4733.23

     ewald   stress (kbar)  27588.32     -0.00      0.00
                               -0.00  27588.32     -0.00
                                0.00     -0.00 -42310.20

     hubbard stress (kbar)      0.00      0.00      0.00
                                0.00      0.00      0.00
                                0.00      0.00      0.00

     DFT-D   stress (kbar)      0.00      0.00      0.00
                                0.00      0.00      0.00
                                0.00      0.00      0.00

     XDM     stress (kbar)      0.00      0.00      0.00
                                0.00      0.00      0.00
                                0.00      0.00      0.00

     dft-nl  stress (kbar)      0.00      0.00      0.00
                                0.00      0.00      0.00
                                0.00      0.00      0.00

     TS-vdW  stress (kbar)      0.00      0.00      0.00
                                0.00      0.00      0.00
                                0.00      0.00      0.00


     Energy error            =      5.8E-07
     Gradient error          =      1.7E-04
     Cell gradient error     =      2.0E-06


     number of scf cycles    =   3
     number of bfgs steps    =   2

     enthalpy old            =    -369.1033698231 Ry
     enthalpy new            =    -369.1033703991 Ry

     CASE: enthalpy_new < enthalpy_old

     new trust radius        =       0.0001021746 bohr
     new conv_thr            =       0.0000000100 Ry

     new unit-cell volume =   1407.46666 a.u.^3 (   208.56504 Ang^3 )
     density =      0.19126 g/cm^3

CELL_PARAMETERS (alat=  7.57368216)
   0.999773459   0.000000000   0.000000000
  -0.499886729   0.865829213   0.000000000
   0.000000000   0.000000000   3.742683055

ATOMIC_POSITIONS (crystal)
Sb            0.0000000000        0.0000000000        0.5000000000    0   0   0
Sb            0.3333333330        0.6666666670        0.6084958261



     Writing output data file ./tmp/Sb.save/
     NEW-OLD atomic charge density approx. for the potential

     negative rho (up, down):  4.035E-06 0.000E+00
     extrapolated charge   29.99924, renormalised to   30.00000

     total cpu time spent up to now is       83.0 secs

     Self-consistent Calculation

     iteration #  1     ecut=    60.00 Ry     beta= 0.70
     Davidson diagonalization with overlap
     ethr =  1.00E-06,  avg # of iterations =  2.0

     Threshold (ethr) on eigenvalues was too large:
     Diagonalizing with lowered threshold

     Davidson diagonalization with overlap
     ethr =  1.49E-09,  avg # of iterations =  1.0

     negative rho (up, down):  3.924E-06 0.000E+00

     total cpu time spent up to now is       88.8 secs

     total energy              =    -369.10336987 Ry
     estimated scf accuracy    <       0.00000045 Ry

     iteration #  2     ecut=    60.00 Ry     beta= 0.70
     Davidson diagonalization with overlap
     ethr =  1.49E-09,  avg # of iterations =  3.0

     negative rho (up, down):  3.876E-06 0.000E+00

     total cpu time spent up to now is       92.1 secs

     total energy              =    -369.10337036 Ry
     estimated scf accuracy    <       0.00000094 Ry

     iteration #  3     ecut=    60.00 Ry     beta= 0.70
     Davidson diagonalization with overlap
     ethr =  1.49E-09,  avg # of iterations =  2.0

     negative rho (up, down):  3.863E-06 0.000E+00

     total cpu time spent up to now is       95.0 secs

     total energy              =    -369.10337044 Ry
     estimated scf accuracy    <       0.00000023 Ry

     iteration #  4     ecut=    60.00 Ry     beta= 0.70
     Davidson diagonalization with overlap
     ethr =  7.82E-10,  avg # of iterations =  1.0

     negative rho (up, down):  3.858E-06 0.000E+00

     total cpu time spent up to now is       97.3 secs

     total energy              =    -369.10337044 Ry
     estimated scf accuracy    <       0.00000007 Ry

     iteration #  5     ecut=    60.00 Ry     beta= 0.70
     Davidson diagonalization with overlap
     ethr =  2.42E-10,  avg # of iterations =  1.0

     negative rho (up, down):  3.854E-06 0.000E+00

     total cpu time spent up to now is       99.5 secs

     total energy              =    -369.10337043 Ry
     estimated scf accuracy    <       0.00000004 Ry

     iteration #  6     ecut=    60.00 Ry     beta= 0.70
     Davidson diagonalization with overlap
     ethr =  1.41E-10,  avg # of iterations =  1.1

     negative rho (up, down):  3.848E-06 0.000E+00

     total cpu time spent up to now is      101.8 secs

     total energy              =    -369.10337042 Ry
     estimated scf accuracy    <       0.00000002 Ry

     iteration #  7     ecut=    60.00 Ry     beta= 0.70
     Davidson diagonalization with overlap
     ethr =  5.98E-11,  avg # of iterations =  2.0

     negative rho (up, down):  3.845E-06 0.000E+00

     total cpu time spent up to now is      104.4 secs

     End of self-consistent calculation

          k = 0.0000 0.0000 0.0000 ( 11133 PWs)   bands (ev):

   -29.4210 -29.4210 -29.3280 -29.3280 -29.2899 -29.1991 -29.1991 -29.1649
   -29.1079 -29.1079 -12.6558  -7.3977  -1.6849  -0.7894  -0.7894   0.8903
     2.0603   2.0603   3.6015   3.6879

     occupation numbers 
[...]
   -29.4169 -29.4076 -29.3245 -29.3186 -29.2835 -29.2010 -29.1973 -29.1647
   -29.1181 -29.1057 -12.4514  -7.3686  -2.3111  -1.5842  -1.2146   1.1863
     2.3729   2.4510   3.8524   3.9409

     occupation numbers 
     1.0000   1.0000   1.0000   1.0000   1.0000   1.0000   1.0000   1.0000
     1.0000   1.0000   1.0000   1.0000   1.0000   1.0000   1.0000   0.0000
     0.0000   0.0000   0.0000   0.0000

          k =-0.0000 0.2311 0.0000 ( 11026 PWs)   bands (ev):

   -29.4151 -29.3945 -29.3238 -29.3105 -29.2782 -29.2067 -29.1989 -29.1678
   -29.1332 -29.1064 -12.1990  -7.3918  -3.2024  -1.5754  -1.5131   0.7066
     2.6914   2.7562   3.9949   4.2369

     occupation numbers 
     1.0000   1.0000   1.0000   1.0000   1.0000   1.0000   1.0000   1.0000
     1.0000   1.0000   1.0000   1.0000   1.0000   1.0000   1.0000   0.0000
     0.0000   0.0000   0.0000   0.0000

          k =-0.0000 0.3081 0.0000 ( 11048 PWs)   bands (ev):

   -29.4129 -29.3776 -29.3230 -29.3000 -29.2706 -29.2144 -29.2021 -29.1724
   -29.1516 -29.1073 -11.8549  -7.5420  -3.8547  -1.9143  -1.5493   0.3627
     2.6056   2.8182   4.2368   4.5291

     occupation numbers 
     1.0000   1.0000   1.0000   1.0000   1.0000   1.0000   1.0000   1.0000
     1.0000   1.0000   1.0000   1.0000   1.0000   1.0000   1.0000   0.0000
     0.0000   0.0000   0.0000   0.0000

          k =-0.0000 0.3851 0.0000 ( 11016 PWs)   bands (ev):

   -29.4109 -29.3590 -29.3208 -29.2878 -29.2614 -29.2239 -29.2079 -29.1837
   -29.1653 -29.1082 -11.4344  -7.8912  -4.1659  -2.1910  -1.7974   0.3082
     2.1933   2.8433   4.6003   4.7203

     occupation numbers 
     1.0000   1.0000   1.0000   1.0000   1.0000   1.0000   1.0000   1.0000
     1.0000   1.0000   1.0000   1.0000   1.0000   1.0000   1.0000   0.0000
     0.0000   0.0000   0.0000   0.0000

          k =-0.0000 0.4621 0.0000 ( 11034 PWs)   bands (ev):

   -29.4093 -29.3444 -29.3136 -29.2745 -29.2523 -29.2351 -29.2166 -29.2021
   -29.1697 -29.1089 -10.9765  -8.3829  -4.1786  -2.3842  -2.1758   0.4826
     1.7941   2.8218   4.3816   5.2651

     occupation numbers 
     1.0000   1.0000   1.0000   1.0000   1.0000   1.0000   1.0000   1.0000
     1.0000   1.0000   1.0000   1.0000   1.0000   1.0000   1.0000   0.0000
     0.0000   0.0000   0.0000   0.0000

          k =-0.0000 0.5392 0.0000 ( 11042 PWs)   bands (ev):

   -29.4084 -29.3387 -29.3020 -29.2611 -29.2484 -29.2474 -29.2231 -29.2160
   -29.1710 -29.1093 -10.6038  -8.8033  -4.0750  -2.4832  -2.4735   0.6990
     1.5109   2.7998   4.1614   5.8994

     occupation numbers 
     1.0000   1.0000   1.0000   1.0000   1.0000   1.0000   1.0000   1.0000
     1.0000   1.0000   1.0000   1.0000   1.0000   1.0000   1.0000   0.0000
     0.0000   0.0000   0.0000   0.0000

          k = 0.0667 0.1155 0.0000 ( 11053 PWs)   bands (ev):

   -29.4173 -29.4103 -29.3245 -29.3205 -29.2845 -29.2000 -29.1969 -29.1641
   -29.1149 -29.1056 -12.5024  -7.3719  -2.0231  -1.6064  -1.1866   1.6794
     1.7018   2.5382   3.8289   3.8518

     occupation numbers 
     1.0000   1.0000   1.0000   1.0000   1.0000   1.0000   1.0000   1.0000
     1.0000   1.0000   1.0000   1.0000   1.0000   1.0000   1.0000   0.0000
     0.0000   0.0000   0.0000   0.0000

          k = 0.0667 0.1926 0.0000 ( 11057 PWs)   bands (ev):

   -29.4158 -29.3996 -29.3234 -29.3145 -29.2802 -29.2048 -29.1977 -29.1666
   -29.1273 -29.1063 -12.2993  -7.3731  -2.8474  -1.6348  -1.5139   1.2284
     2.1456   2.8989   3.9948   4.1021

     occupation numbers 
     1.0000   1.0000   1.0000   1.0000   1.0000   1.0000   1.0000   1.0000
     1.0000   1.0000   1.0000   1.0000   1.0000   1.0000   1.0000   0.0000
     0.0000   0.0000   0.0000   0.0000

          k = 0.0667 0.2696 0.0000 ( 11051 PWs)   bands (ev):

   -29.4138 -29.3845 -29.3224 -29.3059 -29.2734 -29.2119 -29.1996 -29.1704
   -29.1442 -29.1071 -12.0005  -7.4567  -3.5681  -2.0480  -1.4821   0.7945
     2.4608   2.9019   4.1464   4.4109

     occupation numbers 
     1.0000   1.0000   1.0000   1.0000   1.0000   1.0000   1.0000   1.0000
     1.0000   1.0000   1.0000   1.0000   1.0000   1.0000   1.0000   0.0000
     0.0000   0.0000   0.0000   0.0000

          k = 0.0667 0.3466 0.0000 ( 11033 PWs)   bands (ev):

   -29.4118 -29.3663 -29.3210 -29.2953 -29.2644 -29.2210 -29.2034 -29.1775
   -29.1614 -29.1081 -11.6161  -7.7092  -4.0235  -2.3926  -1.5937   0.5650
     2.5285   2.5955   4.4770   4.7090

     occupation numbers 
     1.0000   1.0000   1.0000   1.0000   1.0000   1.0000   1.0000   1.0000
     1.0000   1.0000   1.0000   1.0000   1.0000   1.0000   1.0000   0.0000
     0.0000   0.0000   0.0000   0.0000

          k = 0.0667 0.4236 0.0000 ( 11031 PWs)   bands (ev):

   -29.4099 -29.3486 -29.3170 -29.2831 -29.2545 -29.2318 -29.2100 -29.1941
   -29.1694 -29.1090 -11.1696  -8.1458  -4.1687  -2.6301  -1.9023   0.6157
     2.0815   2.6228   4.6123   5.0286

     occupation numbers 
     1.0000   1.0000   1.0000   1.0000   1.0000   1.0000   1.0000   1.0000
     1.0000   1.0000   1.0000   1.0000   1.0000   1.0000   1.0000   0.0000
     0.0000   0.0000   0.0000   0.0000

          k = 0.0667 0.5006 0.0000 ( 11034 PWs)   bands (ev):

   -29.4087 -29.3383 -29.3064 -29.2703 -29.2482 -29.2423 -29.2194 -29.2105
   -29.1718 -29.1096 -10.7275  -8.6357  -4.1174  -2.7298  -2.2832   0.8534
     1.6715   2.6365   4.3299   5.6446

     occupation numbers 
     1.0000   1.0000   1.0000   1.0000   1.0000   1.0000   1.0000   1.0000
     1.0000   1.0000   1.0000   1.0000   1.0000   1.0000   1.0000   0.0000
     0.0000   0.0000   0.0000   0.0000

          k = 0.0667 0.5777 0.0000 ( 11058 PWs)   bands (ev):

   -29.4082 -29.3358 -29.2983 -29.2581 -29.2579 -29.2439 -29.2203 -29.2202
   -29.1724 -29.1098 -10.5014  -8.8877  -4.0634  -2.7006  -2.5109   1.0654
     1.4174   2.6451   4.1946   6.2587

     occupation numbers 
     1.0000   1.0000   1.0000   1.0000   1.0000   1.0000   1.0000   1.0000
     1.0000   1.0000   1.0000   1.0000   1.0000   1.0000   1.0000   0.0000
     0.0000   0.0000   0.0000   0.0000

          k = 0.1334 0.2311 0.0000 ( 11073 PWs)   bands (ev):

   -29.4142 -29.3868 -29.3212 -29.3091 -29.2741 -29.2114 -29.1983 -29.1698
   -29.1415 -29.1072 -12.0494  -7.4315  -3.3824  -2.2426  -1.4692   1.3305
     2.0066   3.0657   4.2519   4.2590

     occupation numbers 
     1.0000   1.0000   1.0000   1.0000   1.0000   1.0000   1.0000   1.0000
     1.0000   1.0000   1.0000   1.0000   1.0000   1.0000   1.0000   0.0000
     0.0000   0.0000   0.0000   0.0000

          k = 0.1334 0.3081 0.0000 ( 11041 PWs)   bands (ev):

   -29.4123 -29.3699 -29.3190 -29.3019 -29.2652 -29.2204 -29.1998 -29.1752
   -29.1585 -29.1084 -11.7084  -7.6157  -3.7995  -2.7726  -1.4984   1.1319
     2.0804   2.9754   4.4443   4.6264

     occupation numbers 
     1.0000   1.0000   1.0000   1.0000   1.0000   1.0000   1.0000   1.0000
     1.0000   1.0000   1.0000   1.0000   1.0000   1.0000   1.0000   0.0000
     0.0000   0.0000   0.0000   0.0000

          k = 0.1334 0.3851 0.0000 ( 11035 PWs)   bands (ev):

   -29.4105 -29.3512 -29.3163 -29.2924 -29.2547 -29.2314 -29.2033 -29.1884
   -29.1702 -29.1096 -11.2908  -7.9729  -4.0272  -3.1101  -1.6970   1.0110
     2.0441   2.7409   4.7726   4.9773

     occupation numbers 
     1.0000   1.0000   1.0000   1.0000   1.0000   1.0000   1.0000   1.0000
     1.0000   1.0000   1.0000   1.0000   1.0000   1.0000   1.0000   0.0000
     0.0000   0.0000   0.0000   0.0000

          k = 0.1334 0.4621 0.0000 ( 11026 PWs)   bands (ev):

   -29.4090 -29.3357 -29.3095 -29.2811 -29.2466 -29.2418 -29.2117 -29.2054
   -29.1743 -29.1106 -10.8323  -8.4513  -4.1085  -3.2051  -2.0558   1.0708
     1.9234   2.5374   4.6859   5.4686

     occupation numbers 
     1.0000   1.0000   1.0000   1.0000   1.0000   1.0000   1.0000   1.0000
     1.0000   1.0000   1.0000   1.0000   1.0000   1.0000   1.0000   0.0000
     0.0000   0.0000   0.0000   0.0000

          k = 0.1334 0.5392 0.0000 ( 11029 PWs)   bands (ev):

   -29.4082 -29.3297 -29.2971 -29.2697 -29.2583 -29.2384 -29.2228 -29.2134
   -29.1759 -29.1111 -10.4496  -8.8676  -4.1384  -3.0870  -2.4219   1.1951
     1.8035   2.4380   4.4546   6.1368

     occupation numbers 
     1.0000   1.0000   1.0000   1.0000   1.0000   1.0000   1.0000   1.0000
     1.0000   1.0000   1.0000   1.0000   1.0000   1.0000   1.0000   0.0000
     0.0000   0.0000   0.0000   0.0000

          k = 0.2001 0.3466 0.0000 ( 11017 PWs)   bands (ev):

   -29.4107 -29.3521 -29.3147 -29.2971 -29.2546 -29.2314 -29.2005 -29.1864
   -29.1708 -29.1099 -11.3320  -7.9092  -3.8529  -3.4245  -1.6250   1.3903
     1.6254   3.1289   4.7952   4.9373

     occupation numbers 
     1.0000   1.0000   1.0000   1.0000   1.0000   1.0000   1.0000   1.0000
     1.0000   1.0000   1.0000   1.0000   1.0000   1.0000   1.0000   0.0000
     0.0000   0.0000   0.0000   0.0000

          k = 0.2001 0.4236 0.0000 ( 11025 PWs)   bands (ev):

   -29.4093 -29.3333 -29.3102 -29.2892 -29.2449 -29.2429 -29.2057 -29.2021
   -29.1771 -29.1114 -10.8910  -8.3295  -3.9917  -3.6324  -1.8971   1.1888
     1.7005   3.0773   5.0961   5.4052

     occupation numbers 
     1.0000   1.0000   1.0000   1.0000   1.0000   1.0000   1.0000   1.0000
     1.0000   1.0000   1.0000   1.0000   1.0000   1.0000   1.0000   0.0000
     0.0000   0.0000   0.0000   0.0000

          k = 0.2001 0.5006 0.0000 ( 11033 PWs)   bands (ev):

   -29.4083 -29.3213 -29.3000 -29.2789 -29.2587 -29.2345 -29.2239 -29.2059
   -29.1805 -29.1124 -10.4392  -8.7941  -4.2691  -3.3724  -2.2668   0.9461
     2.0411   2.8122   5.0032   5.9950

     occupation numbers 
     1.0000   1.0000   1.0000   1.0000   1.0000   1.0000   1.0000   1.0000
     1.0000   1.0000   1.0000   1.0000   1.0000   1.0000   1.0000   0.0000
     0.0000   0.0000   0.0000   0.0000

          k = 0.2001 0.5777 0.0000 ( 11040 PWs)   bands (ev):

   -29.4079 -29.3188 -29.2890 -29.2727 -29.2687 -29.2378 -29.2260 -29.2086
   -29.1816 -29.1128 -10.1877  -9.0550  -4.3655  -3.1663  -2.5093   0.8653
     2.4014   2.4729   4.9095   6.3002

     occupation numbers 
     1.0000   1.0000   1.0000   1.0000   1.0000   1.0000   1.0000   1.0000
     1.0000   1.0000   1.0000   1.0000   1.0000   1.0000   1.0000   0.0000
     0.0000   0.0000   0.0000   0.0000

          k = 0.2668 0.4621 0.0000 ( 11009 PWs)   bands (ev):

   -29.4083 -29.3150 -29.3046 -29.2821 -29.2589 -29.2330 -29.2243 -29.2020
   -29.1833 -29.1129 -10.4403  -8.7552  -4.3379  -3.4662  -2.1895   0.8255
     2.0142   3.1441   5.7016   5.8546

     occupation numbers 
     1.0000   1.0000   1.0000   1.0000   1.0000   1.0000   1.0000   1.0000
     1.0000   1.0000   1.0000   1.0000   1.0000   1.0000   1.0000   0.0000
     0.0000   0.0000   0.0000   0.0000

          k = 0.2668 0.5392 0.0000 ( 11010 PWs)   bands (ev):

   -29.4077 -29.3061 -29.2929 -29.2752 -29.2705 -29.2416 -29.2259 -29.2019
   -29.1877 -29.1139 -10.0132  -9.1717  -4.5750  -3.1377  -2.5203   0.5826
     2.4191   2.9122   5.7581   5.9345

     occupation numbers 
     1.0000   1.0000   1.0000   1.0000   1.0000   1.0000   1.0000   1.0000
     1.0000   1.0000   1.0000   1.0000   1.0000   1.0000   1.0000   0.0000
     0.0000   0.0000   0.0000   0.0000

          k = 0.3335 0.5777 0.0000 ( 10959 PWs)   bands (ev):

   -29.4075 -29.2928 -29.2894 -29.2893 -29.2577 -29.2576 -29.2237 -29.1953
   -29.1953 -29.1144  -9.5824  -9.5824  -4.7005  -2.8189  -2.8189   0.4336
     2.7471   2.7471   5.7343   6.6851

     occupation numbers 
     1.0000   1.0000   1.0000   1.0000   1.0000   1.0000   1.0000   1.0000
     1.0000   1.0000   1.0000   1.0000   1.0000   1.0000   1.0000   0.0000
     0.0000   0.0000   0.0000   0.0000

     highest occupied, lowest unoccupied level (ev):    -0.7832    0.3082

!    total energy              =    -369.10336988 Ry
     estimated scf accuracy    <          9.7E-10 Ry

     The total energy is the sum of the following terms:
     one-electron contribution =    -822.07821902 Ry
     hartree contribution      =     416.44110283 Ry
     xc contribution           =     -86.72701613 Ry
     ewald contribution        =     123.26076244 Ry

     convergence has been achieved in   9 iterations

     negative rho (up, down):  3.714E-06 0.000E+00

     Forces acting on atoms (cartesian axes, Ry/au):

     atom    1 type  1   force =     0.00000000    0.00000000   -0.00025513
     atom    2 type  1   force =    -0.00000000    0.00000000    0.00025513
     The non-local contrib.  to forces
     atom    1 type  1   force =     0.00000000   -0.00000000    0.49187981
     atom    2 type  1   force =    -0.00000000    0.00000000   -0.49194136
     The ionic contribution  to forces
     atom    1 type  1   force =    -0.00000001    0.00000001  -37.16548855
     atom    2 type  1   force =     0.00000001   -0.00000001   37.16548855
     The local contribution  to forces
     atom    1 type  1   force =     0.00000000   -0.00000000   36.67191337
     atom    2 type  1   force =     0.00000040   -0.00000023  -36.67177012
     The core correction contribution to forces
     atom    1 type  1   force =     0.00000000   -0.00000000    0.00148234
     atom    2 type  1   force =     0.00000003   -0.00000002   -0.00147944
     The Hubbard contrib.    to forces
     atom    1 type  1   force =     0.00000000    0.00000000    0.00000000
     atom    2 type  1   force =     0.00000000    0.00000000    0.00000000
     The SCF correction term to forces
     atom    1 type  1   force =     0.00000000   -0.00000000   -0.00000000
     atom    2 type  1   force =    -0.00000000    0.00000000   -0.00008841

     Total force =     0.000255     Total SCF correction =     0.000088
     SCF correction compared to forces is large: reduce conv_thr to get better values


     Computing stress (Cartesian axis) and pressure


     negative rho (up, down):  3.714E-06 0.000E+00
          total   stress  (Ry/bohr**3)                   (kbar)     P=        0.02
   0.00000016  -0.00000000   0.00000000            0.02       -0.00        0.00
  -0.00000000   0.00000016   0.00000000           -0.00        0.02        0.00
  -0.00000000   0.00000000   0.00000016           -0.00        0.00        0.02

     kinetic stress (kbar)   4985.15     -0.00      0.00
                               -0.00   4985.15      0.00
                                0.00      0.00   5010.52

     local   stress (kbar) -67362.96      0.00     -0.00
                                0.00 -67362.96      0.00
                               -0.00      0.00  68156.91

     nonloc. stress (kbar)     93.50     -0.00      0.00
                               -0.00     93.50     -0.00
                                0.00     -0.00    111.38

     hartree stress (kbar)  36376.00      0.00      0.00
                                0.00  36376.00     -0.00
                                0.00     -0.00 -29197.76

     exc-cor stress (kbar)   3017.47      0.00      0.00
                                0.00   3017.47      0.00
                                0.00      0.00   3017.47

     corecor stress (kbar)  -4735.85      0.00      0.00
                                0.00  -4735.85     -0.00
                                0.00     -0.00  -4736.49

     ewald   stress (kbar)  27626.72     -0.00      0.00
                               -0.00  27626.72     -0.00
                                0.00     -0.00 -42362.00

     hubbard stress (kbar)      0.00      0.00      0.00
                                0.00      0.00      0.00
                                0.00      0.00      0.00

     DFT-D   stress (kbar)      0.00      0.00      0.00
                                0.00      0.00      0.00
                                0.00      0.00      0.00

     XDM     stress (kbar)      0.00      0.00      0.00
                                0.00      0.00      0.00
                                0.00      0.00      0.00

     dft-nl  stress (kbar)      0.00      0.00      0.00
                                0.00      0.00      0.00
                                0.00      0.00      0.00

     TS-vdW  stress (kbar)      0.00      0.00      0.00
                                0.00      0.00      0.00
                                0.00      0.00      0.00



     Writing output data file ./tmp/Sb.save/

     init_run     :      3.71s CPU      4.09s WALL (       2 calls)
     electrons    :    353.70s CPU    394.09s WALL (      16 calls)
     update_pot   :     18.07s CPU     18.33s WALL (      14 calls)
     forces       :     16.43s CPU     17.99s WALL (      16 calls)
     stress       :     53.66s CPU     56.79s WALL (      16 calls)

     Called by init_run:
     wfcinit      :      1.32s CPU      1.40s WALL (       2 calls)
     wfcinit:atom :      0.02s CPU      0.02s WALL (      54 calls)
     wfcinit:wfcr :      1.26s CPU      1.34s WALL (      54 calls)
     potinit      :      0.61s CPU      0.62s WALL (       2 calls)
     hinit0       :      1.40s CPU      1.42s WALL (       2 calls)

     Called by electrons:
     c_bands      :    262.63s CPU    283.96s WALL (     137 calls)
     sum_band     :     71.37s CPU     84.61s WALL (     137 calls)
     v_of_rho     :      1.44s CPU      1.66s WALL (     141 calls)
     v_h          :      0.69s CPU      0.80s WALL (     141 calls)
     v_xc         :      1.00s CPU      1.15s WALL (     173 calls)
     newd         :     18.31s CPU     24.53s WALL (     141 calls)
     mix_rho      :      1.16s CPU      1.35s WALL (     137 calls)

     Called by c_bands:
     init_us_2    :      3.65s CPU      4.27s WALL (    8316 calls)
     cegterg      :    254.12s CPU    274.87s WALL (    3699 calls)

     Called by sum_band:
     sum_band:wei :      0.00s CPU      0.00s WALL (     137 calls)
     sum_band:loo :     51.47s CPU     53.82s WALL (     137 calls)
     sum_band:buf :      0.46s CPU      0.51s WALL (    3699 calls)
     sum_band:ini :      1.62s CPU      1.99s WALL (    3699 calls)
     sum_band:cal :      4.80s CPU      5.62s WALL (    3699 calls)
     sum_band:bec :      0.04s CPU      0.04s WALL (    3699 calls)
     addusdens    :     17.97s CPU     28.67s WALL (     137 calls)
     addusd:skk   :      0.05s CPU      0.08s WALL (     137 calls)
     addusd:dgemm :      2.28s CPU      8.14s WALL (     137 calls)
     addusd:qvan2 :     13.90s CPU     17.34s WALL (     137 calls)

     Called by *egterg:
     cdiaghg      :      3.26s CPU      3.80s WALL (   10364 calls)
     cegterg:over :     12.63s CPU     14.97s WALL (    7367 calls)
     cegterg:upda :      5.29s CPU      6.77s WALL (    7367 calls)
     cegterg:last :      8.43s CPU     10.12s WALL (    6034 calls)
     h_psi        :    210.55s CPU    221.31s WALL (   11120 calls)
     s_psi        :      6.00s CPU      7.65s WALL (   11120 calls)
     g_psi        :      0.43s CPU      0.43s WALL (    7367 calls)

     Called by h_psi:
     h_psi:calbec :     12.69s CPU     15.20s WALL (   11120 calls)
     vloc_psi     :    189.89s CPU    195.69s WALL (   11120 calls)
     add_vuspsi   :      7.04s CPU      9.09s WALL (   11120 calls)

     General routines
     calbec       :     19.71s CPU     23.55s WALL (   16979 calls)
     fft          :      4.03s CPU      4.38s WALL (     968 calls)
     ffts         :      0.25s CPU      0.27s WALL (     278 calls)
     fftw         :    218.55s CPU    225.05s WALL (  421950 calls)
     interpolate  :      0.71s CPU      0.83s WALL (     141 calls)

     Parallel routines
     fft_scatt_xy :     19.70s CPU     20.45s WALL (  423196 calls)
     fft_scatt_yz :     38.70s CPU     40.63s WALL (  423196 calls)

     PWSCF        :   7m27.78s CPU   8m14.52s WALL


   This run was terminated on:  15:15:51  30Apr2026            

=------------------------------------------------------------------------------=
   JOB DONE.
=------------------------------------------------------------------------------=
Note: The following floating-point exceptions are signalling: IEEE_INVALID_FLAG IEEE_DIVIDE_BY_ZERO IEEE_UNDERFLOW_FLAG
