
     Program PWSCF v.6.7MaX starts on 29Apr2026 at 15:42: 3 

     This program is part of the open-source Quantum ESPRESSO suite
     for quantum simulation of materials; please cite
         "P. Giannozzi et al., J. Phys.:Condens. Matter 21 395502 (2009);
         "P. Giannozzi et al., J. Phys.:Condens. Matter 29 465901 (2017);
          URL http://www.quantum-espresso.org", 
     in publications or presentations arising from this work. More details at
     http://www.quantum-espresso.org/quote

     Parallel version (MPI & OpenMP), running on       4 processor cores
     Number of MPI processes:                 4
     Threads/MPI process:                     1

     MPI processes distributed on     1 nodes
     R & G space division:  proc/nbgrp/npool/nimage =       4
     Waiting for input...
     Reading input from standard input

     Current dimensions of program PWSCF are:
     Max number of different atomic species (ntypx) = 10
     Max number of k-points (npk) =  40000
     Max angular momentum in pseudopotentials (lmaxx) =  3
     Message from routine read_pp_mesh:
     mesh size missing, using the one in header

     Subspace diagonalization in iterative solution of the eigenvalue problem:
     a serial algorithm will be used


     Parallelization info
     --------------------
     sticks:   dense  smooth     PW     G-vecs:    dense   smooth      PW
     Min         336     336     94                36012    36012    5363
     Max         337     337     95                36021    36021    5369
     Sum        1345    1345    379               144065   144065   21463



     bravais-lattice index     =            4
     lattice parameter (alat)  =       7.7902  a.u.
     unit-cell volume          =    1489.7684 (a.u.)^3
     number of atoms/cell      =            2
     number of atomic types    =            1
     number of electrons       =        30.00
     number of Kohn-Sham states=           20
     kinetic-energy cutoff     =      80.0000  Ry
     charge density cutoff     =     320.0000  Ry
     scf convergence threshold =      1.0E-06
     mixing beta               =       0.7000
     number of iterations used =            8  plain     mixing
     energy convergence thresh.=      1.0E-04
     force convergence thresh. =      1.0E-03
     press convergence thresh. =      1.0E-03
     Exchange-correlation= PBE
                           (   1   4   3   4   0   0   0)
     nstep                     =           50


     celldm(1)=   7.790207  celldm(2)=   0.000000  celldm(3)=   3.638657
     celldm(4)=   0.000000  celldm(5)=   0.000000  celldm(6)=   0.000000

     crystal axes: (cart. coord. in units of alat)
               a(1) = (   1.000000   0.000000   0.000000 )  
               a(2) = (  -0.500000   0.866025   0.000000 )  
               a(3) = (   0.000000   0.000000   3.638657 )  

     reciprocal axes: (cart. coord. in units 2 pi/alat)
               b(1) = (  1.000000  0.577350 -0.000000 )  
               b(2) = (  0.000000  1.154701  0.000000 )  
               b(3) = (  0.000000 -0.000000  0.274827 )  


     PseudoPot. # 1 for Sb read from file:
     /Users/cdhogan/Research/Codes/espresso/PSEUDO/DOJO-PBE-NC-SR-04-STD/Sb.upf
     MD5 check sum: 127f69b6101c45666faeae1b5d611565
     Pseudo is Norm-conserving + core correction, Zval = 15.0
     Generated using ONCVPSP code by D. R. Hamann
     Using radial grid of 1434 points,  6 beta functions with: 
                l(1) =   0
                l(2) =   0
                l(3) =   1
                l(4) =   1
                l(5) =   2
                l(6) =   2

     atomic species   valence    mass     pseudopotential
        Sb            15.00    12.01100     Sb( 1.00)

      6 Sym. Ops. (no inversion) found


                                    s                        frac. trans.

      isym =  1     identity                                     

 cryst.   s( 1) = (     1          0          0      )
                  (     0          1          0      )
                  (     0          0          1      )

 cart.    s( 1) = (  1.0000000  0.0000000  0.0000000 )
                  (  0.0000000  1.0000000  0.0000000 )
                  (  0.0000000  0.0000000  1.0000000 )


      isym =  2     120 deg rotation - cryst. axis [0,0,1]       

 cryst.   s( 2) = (     0          1          0      )
                  (    -1         -1          0      )
                  (     0          0          1      )

 cart.    s( 2) = ( -0.5000000 -0.8660254  0.0000000 )
                  (  0.8660254 -0.5000000  0.0000000 )
                  (  0.0000000  0.0000000  1.0000000 )


      isym =  3     120 deg rotation - cryst. axis [0,0,-1]      

 cryst.   s( 3) = (    -1         -1          0      )
                  (     1          0          0      )
                  (     0          0          1      )

 cart.    s( 3) = ( -0.5000000  0.8660254  0.0000000 )
                  ( -0.8660254 -0.5000000  0.0000000 )
                  (  0.0000000  0.0000000  1.0000000 )


      isym =  4     inv. 180 deg rotation - cart. axis [1,0,0]   

 cryst.   s( 4) = (    -1          0          0      )
                  (     1          1          0      )
                  (     0          0          1      )

 cart.    s( 4) = ( -1.0000000  0.0000000  0.0000000 )
                  (  0.0000000  1.0000000  0.0000000 )
                  (  0.0000000  0.0000000  1.0000000 )


      isym =  5     inv. 180 deg rotation - cryst. axis [0,1,0]  

 cryst.   s( 5) = (     1          1          0      )
                  (     0         -1          0      )
                  (     0          0          1      )

 cart.    s( 5) = (  0.5000000  0.8660254  0.0000000 )
                  (  0.8660254 -0.5000000  0.0000000 )
                  (  0.0000000  0.0000000  1.0000000 )


      isym =  6     inv. 180 deg rotation - cryst. axis [1,1,0]  

 cryst.   s( 6) = (     0         -1          0      )
                  (    -1          0          0      )
                  (     0          0          1      )

 cart.    s( 6) = (  0.5000000 -0.8660254  0.0000000 )
                  ( -0.8660254 -0.5000000  0.0000000 )
                  (  0.0000000  0.0000000  1.0000000 )


     point group C_3v (3m)  
     there are  3 classes
     the character table:

       E     2C3   3s_v 
A_1    1.00  1.00  1.00
A_2    1.00  1.00 -1.00
E      2.00 -1.00  0.00

     the symmetry operations in each class and the name of the first element:

     E        1
          identity                                               
     2C3      2    3
          120 deg rotation - cryst. axis [0,0,1]                 
     3s_v     4    5    6
          inv. 180 deg rotation - cart. axis [1,0,0]             

   Cartesian axes

     site n.     atom                  positions (alat units)
         1           Sb  tau(   1) = (   0.0000000   0.0000000   1.8193285  )
         2           Sb  tau(   2) = (  -0.0000000   0.5773503   2.2164880  )

   Crystallographic axes

     site n.     atom                  positions (cryst. coord.)
         1           Sb  tau(   1) = (  0.0000000  0.0000000  0.5000000  )
         2           Sb  tau(   2) = (  0.3333333  0.6666667  0.6091500  )

     number of k points=    27
                       cart. coord. in units 2pi/alat
        k(    1) = (   0.0000000   0.0000000   0.0000000), wk =   0.0088889
        k(    2) = (   0.0000000   0.0769800   0.0000000), wk =   0.0533333
        k(    3) = (   0.0000000   0.1539601   0.0000000), wk =   0.0533333
        k(    4) = (   0.0000000   0.2309401   0.0000000), wk =   0.0533333
        k(    5) = (   0.0000000   0.3079201   0.0000000), wk =   0.0533333
        k(    6) = (   0.0000000   0.3849002   0.0000000), wk =   0.0533333
        k(    7) = (   0.0000000   0.4618802   0.0000000), wk =   0.0533333
        k(    8) = (   0.0000000   0.5388603   0.0000000), wk =   0.0533333
        k(    9) = (   0.0666667   0.1154701   0.0000000), wk =   0.0533333
        k(   10) = (   0.0666667   0.1924501   0.0000000), wk =   0.1066667
        k(   11) = (   0.0666667   0.2694301   0.0000000), wk =   0.1066667
        k(   12) = (   0.0666667   0.3464102   0.0000000), wk =   0.1066667
        k(   13) = (   0.0666667   0.4233902   0.0000000), wk =   0.1066667
        k(   14) = (   0.0666667   0.5003702   0.0000000), wk =   0.1066667
        k(   15) = (   0.0666667   0.5773503   0.0000000), wk =   0.0533333
        k(   16) = (   0.1333333   0.2309401   0.0000000), wk =   0.0533333
        k(   17) = (   0.1333333   0.3079201   0.0000000), wk =   0.1066667
        k(   18) = (   0.1333333   0.3849002   0.0000000), wk =   0.1066667
        k(   19) = (   0.1333333   0.4618802   0.0000000), wk =   0.1066667
        k(   20) = (   0.1333333   0.5388603   0.0000000), wk =   0.1066667
        k(   21) = (   0.2000000   0.3464102   0.0000000), wk =   0.0533333
        k(   22) = (   0.2000000   0.4233902   0.0000000), wk =   0.1066667
        k(   23) = (   0.2000000   0.5003702   0.0000000), wk =   0.1066667
        k(   24) = (   0.2000000   0.5773503   0.0000000), wk =   0.0533333
        k(   25) = (   0.2666667   0.4618802   0.0000000), wk =   0.0533333
        k(   26) = (   0.2666667   0.5388603   0.0000000), wk =   0.1066667
        k(   27) = (   0.3333333   0.5773503   0.0000000), wk =   0.0177778

                       cryst. coord.
        k(    1) = (   0.0000000   0.0000000   0.0000000), wk =   0.0088889
        k(    2) = (   0.0000000   0.0666667   0.0000000), wk =   0.0533333
        k(    3) = (   0.0000000   0.1333333   0.0000000), wk =   0.0533333
        k(    4) = (   0.0000000   0.2000000   0.0000000), wk =   0.0533333
        k(    5) = (   0.0000000   0.2666667   0.0000000), wk =   0.0533333
        k(    6) = (   0.0000000   0.3333333   0.0000000), wk =   0.0533333
        k(    7) = (   0.0000000   0.4000000   0.0000000), wk =   0.0533333
        k(    8) = (   0.0000000   0.4666667   0.0000000), wk =   0.0533333
        k(    9) = (   0.0666667   0.0666667   0.0000000), wk =   0.0533333
        k(   10) = (   0.0666667   0.1333333   0.0000000), wk =   0.1066667
        k(   11) = (   0.0666667   0.2000000   0.0000000), wk =   0.1066667
        k(   12) = (   0.0666667   0.2666667   0.0000000), wk =   0.1066667
        k(   13) = (   0.0666667   0.3333333   0.0000000), wk =   0.1066667
        k(   14) = (   0.0666667   0.4000000   0.0000000), wk =   0.1066667
        k(   15) = (   0.0666667   0.4666667   0.0000000), wk =   0.0533333
        k(   16) = (   0.1333333   0.1333333   0.0000000), wk =   0.0533333
        k(   17) = (   0.1333333   0.2000000   0.0000000), wk =   0.1066667
        k(   18) = (   0.1333333   0.2666667   0.0000000), wk =   0.1066667
        k(   19) = (   0.1333333   0.3333333   0.0000000), wk =   0.1066667
        k(   20) = (   0.1333333   0.4000000   0.0000000), wk =   0.1066667
        k(   21) = (   0.2000000   0.2000000   0.0000000), wk =   0.0533333
        k(   22) = (   0.2000000   0.2666667   0.0000000), wk =   0.1066667
        k(   23) = (   0.2000000   0.3333333   0.0000000), wk =   0.1066667
        k(   24) = (   0.2000000   0.4000000   0.0000000), wk =   0.0533333
        k(   25) = (   0.2666667   0.2666667   0.0000000), wk =   0.0533333
        k(   26) = (   0.2666667   0.3333333   0.0000000), wk =   0.1066667
        k(   27) = (   0.3333333   0.3333333   0.0000000), wk =   0.0177778

     Dense  grid:   144065 G-vectors     FFT dimensions: (  45,  45, 162)

     Dynamical RAM for                 wfc:       1.37 MB

     Dynamical RAM for     wfc (w. buffer):      38.45 MB

     Dynamical RAM for           str. fact:       0.55 MB

     Dynamical RAM for           local pot:       0.00 MB

     Dynamical RAM for          nlocal pot:       2.47 MB

     Dynamical RAM for                qrad:       2.87 MB

     Dynamical RAM for          rho,v,vnew:       3.55 MB

     Dynamical RAM for               rhoin:       1.18 MB

     Dynamical RAM for            rho*nmix:       8.79 MB

     Dynamical RAM for           G-vectors:       2.34 MB

     Dynamical RAM for          h,s,v(r/c):       0.07 MB

     Dynamical RAM for          <psi|beta>:       0.01 MB

     Dynamical RAM for                 psi:       2.75 MB

     Dynamical RAM for                hpsi:       2.75 MB

     Dynamical RAM for      wfcinit/wfcrot:       2.76 MB

     Estimated static dynamical RAM per process >      64.47 MB

     Estimated max dynamical RAM per process >      70.05 MB

     Estimated total dynamical RAM >     280.19 MB

     Initial potential from superposition of free atoms

     starting charge   29.99888, renormalised to   30.00000

     negative rho (up, down):  7.095E-06 0.000E+00
     Starting wfcs are   18 randomized atomic wfcs +    2 random wfcs

     total cpu time spent up to now is        1.4 secs

     Self-consistent Calculation

     iteration #  1     ecut=    80.00 Ry     beta= 0.70
     Davidson diagonalization with overlap
     ethr =  1.00E-02,  avg # of iterations =  6.2

     Threshold (ethr) on eigenvalues was too large:
     Diagonalizing with lowered threshold

     Davidson diagonalization with overlap
     ethr =  6.09E-05,  avg # of iterations =  6.7

     negative rho (up, down):  1.162E-07 0.000E+00

     total cpu time spent up to now is        8.2 secs

     total energy              =    -363.80496749 Ry
     estimated scf accuracy    <       0.01840703 Ry

     iteration #  2     ecut=    80.00 Ry     beta= 0.70
     Davidson diagonalization with overlap
     ethr =  6.14E-05,  avg # of iterations =  3.1

     total cpu time spent up to now is       10.9 secs

     total energy              =    -363.80628329 Ry
     estimated scf accuracy    <       0.00081772 Ry

     iteration #  3     ecut=    80.00 Ry     beta= 0.70
     Davidson diagonalization with overlap
     ethr =  2.73E-06,  avg # of iterations =  6.9

     total cpu time spent up to now is       14.9 secs

     total energy              =    -363.80645807 Ry
     estimated scf accuracy    <       0.00003726 Ry

     iteration #  4     ecut=    80.00 Ry     beta= 0.70
     Davidson diagonalization with overlap
     ethr =  1.24E-07,  avg # of iterations =  4.8

     total cpu time spent up to now is       18.0 secs

     total energy              =    -363.80646951 Ry
     estimated scf accuracy    <       0.00000213 Ry

     iteration #  5     ecut=    80.00 Ry     beta= 0.70
     Davidson diagonalization with overlap
     ethr =  7.09E-09,  avg # of iterations =  3.1

     total cpu time spent up to now is       21.3 secs

     End of self-consistent calculation

          k = 0.0000 0.0000 0.0000 ( 17913 PWs)   bands (ev):

   -29.4230 -29.4230 -29.3532 -29.3532 -29.3071 -29.2472 -29.2472 -29.2091
   -29.1655 -29.1655 -12.0920  -7.1318  -1.4142  -0.8372  -0.8372   0.7289
     1.9487   1.9487   3.6214   3.6236

     occupation numbers 
     1.0000   1.0000   1.0000   1.0000   1.0000   1.0000   1.0000   1.0000
     1.0000   1.0000   1.0000   1.0000   1.0000   1.0000   1.0000   0.0000
     0.0000   0.0000   0.0000   0.0000

          k = 0.0000 0.0770 0.0000 ( 17915 PWs)   bands (ev):

   -29.4227 -29.4208 -29.3529 -29.3518 -29.3066 -29.2482 -29.2473 -29.2098
   -29.1681 -29.1657 -12.0448  -7.1303  -1.3942  -1.3477  -0.9481   1.1314
     1.8509   2.0568   3.6773   3.6881

     occupation numbers 
     1.0000   1.0000   1.0000   1.0000   1.0000   1.0000   1.0000   1.0000
     1.0000   1.0000   1.0000   1.0000   1.0000   1.0000   1.0000   0.0000
     0.0000   0.0000   0.0000   0.0000

          k = 0.0000 0.1540 0.0000 ( 17941 PWs)   bands (ev):

   -29.4219 -29.4142 -29.3520 -29.3477 -29.3048 -29.2511 -29.2475 -29.2116
   -29.1756 -29.1660 -11.9044  -7.1394  -2.2018  -1.3457  -1.2183   1.1374
     2.1800   2.2998   3.8134   3.8850

     occupation numbers 
     1.0000   1.0000   1.0000   1.0000   1.0000   1.0000   1.0000   1.0000
     1.0000   1.0000   1.0000   1.0000   1.0000   1.0000   1.0000   0.0000
     0.0000   0.0000   0.0000   0.0000

          k = 0.0000 0.2309 0.0000 ( 17965 PWs)   bands (ev):

   -29.4207 -29.4038 -29.3506 -29.3411 -29.3016 -29.2559 -29.2482 -29.2148
   -29.1872 -29.1666 -11.6738  -7.2022  -2.9813  -1.5419  -1.3169   0.7494
     2.5338   2.6074   3.9885   4.1534

     occupation numbers 
     1.0000   1.0000   1.0000   1.0000   1.0000   1.0000   1.0000   1.0000
     1.0000   1.0000   1.0000   1.0000   1.0000   1.0000   1.0000   0.0000
     0.0000   0.0000   0.0000   0.0000

          k = 0.0000 0.3079 0.0000 ( 18001 PWs)   bands (ev):

   -29.4192 -29.3906 -29.3484 -29.3326 -29.2972 -29.2624 -29.2497 -29.2202
   -29.2007 -29.1673 -11.3602  -7.3853  -3.5410  -1.8482  -1.3991   0.4832
     2.5697   2.6740   4.2420   4.4346

     occupation numbers 
     1.0000   1.0000   1.0000   1.0000   1.0000   1.0000   1.0000   1.0000
     1.0000   1.0000   1.0000   1.0000   1.0000   1.0000   1.0000   0.0000
     0.0000   0.0000   0.0000   0.0000

          k = 0.0000 0.3849 0.0000 ( 18015 PWs)   bands (ev):

   -29.4177 -29.3770 -29.3441 -29.3227 -29.2920 -29.2704 -29.2524 -29.2307
   -29.2108 -29.1680 -10.9788  -7.7293  -3.8127  -2.0993  -1.6522   0.4579
     2.2443   2.7212   4.5744   4.6971

     occupation numbers 
     1.0000   1.0000   1.0000   1.0000   1.0000   1.0000   1.0000   1.0000
     1.0000   1.0000   1.0000   1.0000   1.0000   1.0000   1.0000   0.0000
     0.0000   0.0000   0.0000   0.0000

          k = 0.0000 0.4619 0.0000 ( 18032 PWs)   bands (ev):

   -29.4166 -29.3676 -29.3349 -29.3120 -29.2881 -29.2797 -29.2565 -29.2449
   -29.2155 -29.1686 -10.5671  -8.1759  -3.8413  -2.2751  -1.9892   0.6064
     1.8987   2.7187   4.4636   5.2165

     occupation numbers 
     1.0000   1.0000   1.0000   1.0000   1.0000   1.0000   1.0000   1.0000
     1.0000   1.0000   1.0000   1.0000   1.0000   1.0000   1.0000   0.0000
     0.0000   0.0000   0.0000   0.0000

          k = 0.0000 0.5389 0.0000 ( 18016 PWs)   bands (ev):

   -29.4159 -29.3638 -29.3234 -29.3010 -29.2899 -29.2889 -29.2591 -29.2551
   -29.2173 -29.1689 -10.2374  -8.5458  -3.7720  -2.3652  -2.2405   0.7752
     1.6592   2.7071   4.3012   5.8184

     occupation numbers 
     1.0000   1.0000   1.0000   1.0000   1.0000   1.0000   1.0000   1.0000
     1.0000   1.0000   1.0000   1.0000   1.0000   1.0000   1.0000   0.0000
     0.0000   0.0000   0.0000   0.0000

          k = 0.0667 0.1155 0.0000 ( 17957 PWs)   bands (ev):

   -29.4222 -29.4163 -29.3522 -29.3491 -29.3054 -29.2502 -29.2473 -29.2110
   -29.1731 -29.1659 -11.9510  -7.1340  -1.9479  -1.3618  -1.1862   1.5050
     1.6355   2.3644   3.7808   3.8121

     occupation numbers 
     1.0000   1.0000   1.0000   1.0000   1.0000   1.0000   1.0000   1.0000
     1.0000   1.0000   1.0000   1.0000   1.0000   1.0000   1.0000   0.0000
     0.0000   0.0000   0.0000   0.0000

          k = 0.0667 0.1925 0.0000 ( 17973 PWs)   bands (ev):

   -29.4212 -29.4078 -29.3508 -29.3440 -29.3028 -29.2543 -29.2476 -29.2135
   -29.1827 -29.1665 -11.7653  -7.1689  -2.6735  -1.5805  -1.3045   1.2042
     2.0002   2.7255   3.9492   4.0384

     occupation numbers 
     1.0000   1.0000   1.0000   1.0000   1.0000   1.0000   1.0000   1.0000
     1.0000   1.0000   1.0000   1.0000   1.0000   1.0000   1.0000   0.0000
     0.0000   0.0000   0.0000   0.0000

          k = 0.0667 0.2694 0.0000 ( 17984 PWs)   bands (ev):

   -29.4199 -29.3958 -29.3490 -29.3369 -29.2989 -29.2601 -29.2484 -29.2176
   -29.1954 -29.1672 -11.4927  -7.2907  -3.2943  -1.9560  -1.3125   0.8489
     2.3349   2.7947   4.1454   4.3199

     occupation numbers 
     1.0000   1.0000   1.0000   1.0000   1.0000   1.0000   1.0000   1.0000
     1.0000   1.0000   1.0000   1.0000   1.0000   1.0000   1.0000   0.0000
     0.0000   0.0000   0.0000   0.0000

          k = 0.0667 0.3464 0.0000 ( 17990 PWs)   bands (ev):

   -29.4184 -29.3819 -29.3460 -29.3280 -29.2937 -29.2677 -29.2501 -29.2254
   -29.2077 -29.1680 -11.1432  -7.5581  -3.6844  -2.2658  -1.4581   0.6819
     2.4938   2.5229   4.4634   4.6224

     occupation numbers 
     1.0000   1.0000   1.0000   1.0000   1.0000   1.0000   1.0000   1.0000
     1.0000   1.0000   1.0000   1.0000   1.0000   1.0000   1.0000   0.0000
     0.0000   0.0000   0.0000   0.0000

          k = 0.0667 0.4234 0.0000 ( 18000 PWs)   bands (ev):

   -29.4171 -29.3696 -29.3397 -29.3180 -29.2886 -29.2765 -29.2531 -29.2389
   -29.2146 -29.1687 -10.7396  -7.9667  -3.8221  -2.4762  -1.7547   0.7418
     2.1271   2.5601   4.6260   4.9931

     occupation numbers 
     1.0000   1.0000   1.0000   1.0000   1.0000   1.0000   1.0000   1.0000
     1.0000   1.0000   1.0000   1.0000   1.0000   1.0000   1.0000   0.0000
     0.0000   0.0000   0.0000   0.0000

          k = 0.0667 0.5004 0.0000 ( 18002 PWs)   bands (ev):

   -29.4162 -29.3631 -29.3282 -29.3076 -29.2885 -29.2844 -29.2574 -29.2514
   -29.2176 -29.1691 -10.3446  -8.4039  -3.8009  -2.5609  -2.0909   0.9405
     1.7670   2.5877   4.4367   5.5742

     occupation numbers 
     1.0000   1.0000   1.0000   1.0000   1.0000   1.0000   1.0000   1.0000
     1.0000   1.0000   1.0000   1.0000   1.0000   1.0000   1.0000   0.0000
     0.0000   0.0000   0.0000   0.0000

          k = 0.0667 0.5774 0.0000 ( 18016 PWs)   bands (ev):

   -29.4159 -29.3614 -29.3202 -29.2994 -29.2959 -29.2870 -29.2590 -29.2564
   -29.2185 -29.1693 -10.1464  -8.6237  -3.7676  -2.5450  -2.2746   1.0917
     1.5716   2.5986   4.3345   6.2471

     occupation numbers 
     1.0000   1.0000   1.0000   1.0000   1.0000   1.0000   1.0000   1.0000
     1.0000   1.0000   1.0000   1.0000   1.0000   1.0000   1.0000   0.0000
     0.0000   0.0000   0.0000   0.0000

          k = 0.1333 0.2309 0.0000 ( 17975 PWs)   bands (ev):

   -29.4201 -29.3975 -29.3488 -29.3388 -29.2994 -29.2596 -29.2477 -29.2169
   -29.1935 -29.1672 -11.5372  -7.2612  -3.1337  -2.1233  -1.2882   1.3458
     1.8903   2.9154   4.1760   4.2300

     occupation numbers 
     1.0000   1.0000   1.0000   1.0000   1.0000   1.0000   1.0000   1.0000
     1.0000   1.0000   1.0000   1.0000   1.0000   1.0000   1.0000   0.0000
     0.0000   0.0000   0.0000   0.0000

          k = 0.1333 0.3079 0.0000 ( 17997 PWs)   bands (ev):

   -29.4189 -29.3842 -29.3462 -29.3319 -29.2944 -29.2669 -29.2481 -29.2230
   -29.2056 -29.1681 -11.2267  -7.4689  -3.4852  -2.5982  -1.3555   1.2030
     2.0373   2.8466   4.4153   4.5514

     occupation numbers 
     1.0000   1.0000   1.0000   1.0000   1.0000   1.0000   1.0000   1.0000
     1.0000   1.0000   1.0000   1.0000   1.0000   1.0000   1.0000   0.0000
     0.0000   0.0000   0.0000   0.0000

          k = 0.1333 0.3849 0.0000 ( 18011 PWs)   bands (ev):

   -29.4177 -29.3702 -29.3421 -29.3236 -29.2886 -29.2758 -29.2493 -29.2346
   -29.2145 -29.1690 -10.8480  -7.8162  -3.6880  -2.8968  -1.5663   1.1284
     2.0657   2.6501   4.7265   4.9254

     occupation numbers 
     1.0000   1.0000   1.0000   1.0000   1.0000   1.0000   1.0000   1.0000
     1.0000   1.0000   1.0000   1.0000   1.0000   1.0000   1.0000   0.0000
     0.0000   0.0000   0.0000   0.0000

          k = 0.1333 0.4619 0.0000 ( 18021 PWs)   bands (ev):

   -29.4167 -29.3600 -29.3335 -29.3142 -29.2872 -29.2824 -29.2529 -29.2482
   -29.2191 -29.1698 -10.4352  -8.2519  -3.7857  -2.9695  -1.8961   1.2039
     1.9445   2.5058   4.7274   5.4120

     occupation numbers 
     1.0000   1.0000   1.0000   1.0000   1.0000   1.0000   1.0000   1.0000
     1.0000   1.0000   1.0000   1.0000   1.0000   1.0000   1.0000   0.0000
     0.0000   0.0000   0.0000   0.0000

          k = 0.1333 0.5389 0.0000 ( 18009 PWs)   bands (ev):

   -29.4161 -29.3561 -29.3210 -29.3059 -29.2970 -29.2823 -29.2609 -29.2523
   -29.2212 -29.1702 -10.0957  -8.6202  -3.8342  -2.8634  -2.2125   1.3438
     1.7769   2.4584   4.5575   6.0419

     occupation numbers 
     1.0000   1.0000   1.0000   1.0000   1.0000   1.0000   1.0000   1.0000
     1.0000   1.0000   1.0000   1.0000   1.0000   1.0000   1.0000   0.0000
     0.0000   0.0000   0.0000   0.0000

          k = 0.2000 0.3464 0.0000 ( 18047 PWs)   bands (ev):

   -29.4179 -29.3702 -29.3427 -29.3259 -29.2884 -29.2757 -29.2477 -29.2331
   -29.2146 -29.1692 -10.8849  -7.7610  -3.5216  -3.1832  -1.4995   1.4939
     1.6881   2.9442   4.7245   4.8974

     occupation numbers 
     1.0000   1.0000   1.0000   1.0000   1.0000   1.0000   1.0000   1.0000
     1.0000   1.0000   1.0000   1.0000   1.0000   1.0000   1.0000   0.0000
     0.0000   0.0000   0.0000   0.0000

          k = 0.2000 0.4234 0.0000 ( 18026 PWs)   bands (ev):

   -29.4170 -29.3564 -29.3378 -29.3181 -29.2863 -29.2821 -29.2486 -29.2467
   -29.2206 -29.1703 -10.4860  -8.1531  -3.6838  -3.3351  -1.7621   1.3326
     1.7971   2.9202   5.0355   5.3564

     occupation numbers 
     1.0000   1.0000   1.0000   1.0000   1.0000   1.0000   1.0000   1.0000
     1.0000   1.0000   1.0000   1.0000   1.0000   1.0000   1.0000   0.0000
     0.0000   0.0000   0.0000   0.0000

          k = 0.2000 0.5004 0.0000 ( 18014 PWs)   bands (ev):

   -29.4163 -29.3487 -29.3275 -29.3092 -29.2976 -29.2784 -29.2621 -29.2476
   -29.2245 -29.1710 -10.0805  -8.5728  -3.9449  -3.1020  -2.0948   1.1272
     2.0999   2.7256   5.0178   5.9138

     occupation numbers 
     1.0000   1.0000   1.0000   1.0000   1.0000   1.0000   1.0000   1.0000
     1.0000   1.0000   1.0000   1.0000   1.0000   1.0000   1.0000   0.0000
     0.0000   0.0000   0.0000   0.0000

          k = 0.2000 0.5774 0.0000 ( 18009 PWs)   bands (ev):

   -29.4161 -29.3469 -29.3160 -29.3105 -29.3010 -29.2796 -29.2673 -29.2478
   -29.2259 -29.1713  -9.8581  -8.8037  -4.0345  -2.9270  -2.3035   1.0574
     2.4010   2.4578   4.9440   6.2719

     occupation numbers 
     1.0000   1.0000   1.0000   1.0000   1.0000   1.0000   1.0000   1.0000
     1.0000   1.0000   1.0000   1.0000   1.0000   1.0000   1.0000   0.0000
     0.0000   0.0000   0.0000   0.0000

          k = 0.2667 0.4619 0.0000 ( 18031 PWs)   bands (ev):

   -29.4164 -29.3427 -29.3337 -29.3100 -29.2978 -29.2769 -29.2624 -29.2453
   -29.2262 -29.1714 -10.0791  -8.5463  -4.0019  -3.1815  -2.0359   1.0237
     2.1047   3.0154   5.5676   5.8019

     occupation numbers 
     1.0000   1.0000   1.0000   1.0000   1.0000   1.0000   1.0000   1.0000
     1.0000   1.0000   1.0000   1.0000   1.0000   1.0000   1.0000   0.0000
     0.0000   0.0000   0.0000   0.0000

          k = 0.2667 0.5389 0.0000 ( 18050 PWs)   bands (ev):

   -29.4161 -29.3363 -29.3241 -29.3106 -29.2998 -29.2772 -29.2726 -29.2429
   -29.2305 -29.1720  -9.6953  -8.9246  -4.2130  -2.8953  -2.3342   0.8144
     2.4692   2.8522   5.6810   5.9592

     occupation numbers 
     1.0000   1.0000   1.0000   1.0000   1.0000   1.0000   1.0000   1.0000
     1.0000   1.0000   1.0000   1.0000   1.0000   1.0000   1.0000   0.0000
     0.0000   0.0000   0.0000   0.0000

          k = 0.3333 0.5774 0.0000 ( 18051 PWs)   bands (ev):

   -29.4160 -29.3244 -29.3231 -29.3225 -29.2889 -29.2879 -29.2730 -29.2372
   -29.2365 -29.1724  -9.3034  -9.3026  -4.3221  -2.6099  -2.6096   0.6874
     2.7477   2.7480   5.8122   6.4856

     occupation numbers 
     1.0000   1.0000   1.0000   1.0000   1.0000   1.0000   1.0000   1.0000
     1.0000   1.0000   1.0000   1.0000   1.0000   1.0000   1.0000   0.0000
     0.0000   0.0000   0.0000   0.0000

     highest occupied, lowest unoccupied level (ev):    -0.8372    0.4579

!    total energy              =    -363.80646982 Ry
     estimated scf accuracy    <       0.00000077 Ry

     The total energy is the sum of the following terms:
     one-electron contribution =    -770.27521791 Ry
     hartree contribution      =     389.36313179 Ry
     xc contribution           =     -90.87393834 Ry
     ewald contribution        =     107.97955464 Ry

     convergence has been achieved in   5 iterations

     Forces acting on atoms (cartesian axes, Ry/au):

     atom    1 type  1   force =     0.00000000    0.00000000   -0.00058251
     atom    2 type  1   force =     0.00000000   -0.00000000    0.00058251
     The non-local contrib.  to forces
     atom    1 type  1   force =     0.00000000    0.00000000    0.60950133
     atom    2 type  1   force =     0.00000000    0.00000000   -0.60952555
     The ionic contribution  to forces
     atom    1 type  1   force =    -0.00000001    0.00000001  -34.59749096
     atom    2 type  1   force =     0.00000001   -0.00000001   34.59749096
     The local contribution  to forces
     atom    1 type  1   force =     0.00000000   -0.00000000   33.99868071
     atom    2 type  1   force =     0.00000044   -0.00000025  -33.99397865
     The core correction contribution to forces
     atom    1 type  1   force =    -0.00000000    0.00000000   -0.00417470
     atom    2 type  1   force =     0.00000002   -0.00000001    0.00421869
     The Hubbard contrib.    to forces
     atom    1 type  1   force =     0.00000000    0.00000000    0.00000000
     atom    2 type  1   force =     0.00000000    0.00000000    0.00000000
     The SCF correction term to forces
     atom    1 type  1   force =     0.00000000   -0.00000000   -0.00000000
     atom    2 type  1   force =    -0.00000000    0.00000000    0.00234701

     Total force =     0.000583     Total SCF correction =     0.002347
     SCF correction compared to forces is large: reduce conv_thr to get better values


     Computing stress (Cartesian axis) and pressure

          total   stress  (Ry/bohr**3)                   (kbar)     P=       -0.17
  -0.00000113  -0.00000000   0.00000000           -0.17       -0.00        0.00
   0.00000000  -0.00000113   0.00000000            0.00       -0.17        0.00
   0.00000000   0.00000000  -0.00000116            0.00        0.00       -0.17

     kinetic stress (kbar)  13996.16     -0.00      0.00
                               -0.00  13996.16      0.00
                                0.00      0.00  14028.20

     local   stress (kbar) -62511.57      0.00     -0.00
                                0.00 -62511.57      0.00
                               -0.00      0.00  57603.77

     nonloc. stress (kbar)  -6044.01     -0.00      0.00
                               -0.00  -6044.01      0.00
                                0.00      0.00  -6027.84

     hartree stress (kbar)  32178.12     -0.00     -0.00
                               -0.00  32178.12     -0.00
                               -0.00     -0.00 -25909.12

     exc-cor stress (kbar)   3403.05     -0.00      0.00
                               -0.00   3403.05     -0.00
                                0.00     -0.00   3401.85

     corecor stress (kbar)  -5267.59     -0.00      0.00
                               -0.00  -5267.59     -0.00
                                0.00     -0.00  -5267.98

     ewald   stress (kbar)  24245.67     -0.00      0.00
                               -0.00  24245.67     -0.00
                                0.00     -0.00 -37829.05

     hubbard stress (kbar)      0.00      0.00      0.00
                                0.00      0.00      0.00
                                0.00      0.00      0.00

     DFT-D   stress (kbar)      0.00      0.00      0.00
                                0.00      0.00      0.00
                                0.00      0.00      0.00

     XDM     stress (kbar)      0.00      0.00      0.00
                                0.00      0.00      0.00
                                0.00      0.00      0.00

     dft-nl  stress (kbar)      0.00      0.00      0.00
                                0.00      0.00      0.00
                                0.00      0.00      0.00

     TS-vdW  stress (kbar)      0.00      0.00      0.00
                                0.00      0.00      0.00
                                0.00      0.00      0.00



     BFGS Geometry Optimization
     Energy error            =      0.0E+00
     Gradient error          =      5.8E-04
     Cell gradient error     =      1.1E-06


     number of scf cycles    =   1
     number of bfgs steps    =   0

     enthalpy new            =    -363.8064698177 Ry

     new trust radius        =       0.0005825079 bohr
     new conv_thr            =       0.0000010000 Ry

     new unit-cell volume =   1489.68384 a.u.^3 (   220.74837 Ang^3 )
     density =      0.18070 g/cm^3

CELL_PARAMETERS (alat=  7.79020698)
   0.999971629   0.000000000   0.000000000
  -0.499985815   0.866000834   0.000000000
   0.000000000   0.000000000   3.638657093

ATOMIC_POSITIONS (crystal)
Sb            0.0000000000        0.0000000000        0.5000000000    0   0   0
Sb            0.3333333330        0.6666666670        0.6091705500



     Writing output data file ./tmp/Sb.save/
     NEW-OLD atomic charge density approx. for the potential
     extrapolated charge   29.99830, renormalised to   30.00000

     total cpu time spent up to now is       24.2 secs

     Self-consistent Calculation

     iteration #  1     ecut=    80.00 Ry     beta= 0.70
     Davidson diagonalization with overlap
     ethr =  1.00E-06,  avg # of iterations =  2.0

     Threshold (ethr) on eigenvalues was too large:
     Diagonalizing with lowered threshold

     Davidson diagonalization with overlap
     ethr =  3.18E-08,  avg # of iterations =  2.0

     total cpu time spent up to now is       30.1 secs

     total energy              =    -363.80646282 Ry
     estimated scf accuracy    <       0.00000963 Ry

     iteration #  2     ecut=    80.00 Ry     beta= 0.70
     Davidson diagonalization with overlap
     ethr =  3.21E-08,  avg # of iterations =  2.6

     total cpu time spent up to now is       33.4 secs

     total energy              =    -363.80645506 Ry
     estimated scf accuracy    <       0.00013381 Ry

     iteration #  3     ecut=    80.00 Ry     beta= 0.70
     Davidson diagonalization with overlap
     ethr =  3.21E-08,  avg # of iterations =  2.1

     total cpu time spent up to now is       36.1 secs

     End of self-consistent calculation

          k = 0.0000 0.0000 0.0000 ( 17913 PWs)   bands (ev):

   -29.4144 -29.4144 -29.3446 -29.3446 -29.2987 -29.2387 -29.2387 -29.2007
   -29.1570 -29.1570 -12.0838  -7.1273  -1.4110  -0.8288  -0.8288   0.7372
     1.9557   1.9557   3.6221   3.6233

     occupation numbers 
     1.0000   1.0000   1.0000   1.0000   1.0000   1.0000   1.0000   1.0000
     1.0000   1.0000   1.0000   1.0000   1.0000   1.0000   1.0000   0.0000
     0.0000   0.0000   0.0000   0.0000

          k = 0.0000 0.0770 0.0000 ( 17915 PWs)   bands (ev):

   -29.4141 -29.4121 -29.3443 -29.3432 -29.2981 -29.2397 -29.2387 -29.2013
   -29.1596 -29.1572 -12.0366  -7.1257  -1.3910  -1.3394  -0.9398   1.1395
     1.8578   2.0637   3.6773   3.6887

     occupation numbers 
     1.0000   1.0000   1.0000   1.0000   1.0000   1.0000   1.0000   1.0000
     1.0000   1.0000   1.0000   1.0000   1.0000   1.0000   1.0000   0.0000
     0.0000   0.0000   0.0000   0.0000

          k = 0.0000 0.1540 0.0000 ( 17941 PWs)   bands (ev):

   -29.4133 -29.4055 -29.3434 -29.3391 -29.2963 -29.2426 -29.2390 -29.2032
   -29.1671 -29.1576 -11.8961  -7.1346  -2.1937  -1.3423  -1.2099   1.1445
     2.1868   2.3065   3.8135   3.8859

     occupation numbers 
     1.0000   1.0000   1.0000   1.0000   1.0000   1.0000   1.0000   1.0000
     1.0000   1.0000   1.0000   1.0000   1.0000   1.0000   1.0000   0.0000
     0.0000   0.0000   0.0000   0.0000

          k = 0.0000 0.2309 0.0000 ( 17965 PWs)   bands (ev):

   -29.4120 -29.3951 -29.3420 -29.3325 -29.2931 -29.2474 -29.2397 -29.2063
   -29.1787 -29.1581 -11.6656  -7.1969  -2.9737  -1.5336  -1.3133   0.7559
     2.5400   2.6134   3.9892   4.1540

     occupation numbers 
     1.0000   1.0000   1.0000   1.0000   1.0000   1.0000   1.0000   1.0000
     1.0000   1.0000   1.0000   1.0000   1.0000   1.0000   1.0000   0.0000
     0.0000   0.0000   0.0000   0.0000

          k = 0.0000 0.3079 0.0000 ( 18001 PWs)   bands (ev):

   -29.4105 -29.3819 -29.3398 -29.3241 -29.2887 -29.2539 -29.2411 -29.2117
   -29.1922 -29.1589 -11.3520  -7.3793  -3.5341  -1.8400  -1.3950   0.4893
     2.5753   2.6798   4.2428   4.4350

     occupation numbers 
     1.0000   1.0000   1.0000   1.0000   1.0000   1.0000   1.0000   1.0000
     1.0000   1.0000   1.0000   1.0000   1.0000   1.0000   1.0000   0.0000
     0.0000   0.0000   0.0000   0.0000

          k = 0.0000 0.3849 0.0000 ( 18015 PWs)   bands (ev):

   -29.4091 -29.3684 -29.3355 -29.3142 -29.2835 -29.2619 -29.2439 -29.2222
   -29.2024 -29.1595 -10.9706  -7.7226  -3.8066  -2.0911  -1.6478   0.4638
     2.2497   2.7266   4.5763   4.6974

     occupation numbers 
     1.0000   1.0000   1.0000   1.0000   1.0000   1.0000   1.0000   1.0000
     1.0000   1.0000   1.0000   1.0000   1.0000   1.0000   1.0000   0.0000
     0.0000   0.0000   0.0000   0.0000

          k = 0.0000 0.4619 0.0000 ( 18032 PWs)   bands (ev):

   -29.4079 -29.3589 -29.3263 -29.3034 -29.2795 -29.2712 -29.2480 -29.2364
   -29.2070 -29.1601 -10.5589  -8.1687  -3.8357  -2.2669  -1.9846   0.6126
     1.9035   2.7240   4.4665   5.2168

     occupation numbers 
     1.0000   1.0000   1.0000   1.0000   1.0000   1.0000   1.0000   1.0000
     1.0000   1.0000   1.0000   1.0000   1.0000   1.0000   1.0000   0.0000
     0.0000   0.0000   0.0000   0.0000

          k = 0.0000 0.5389 0.0000 ( 18016 PWs)   bands (ev):

   -29.4073 -29.3552 -29.3148 -29.2924 -29.2814 -29.2804 -29.2505 -29.2466
   -29.2089 -29.1604 -10.2293  -8.5383  -3.7666  -2.3570  -2.2359   0.7821
     1.6630   2.7122   4.3043   5.8189

     occupation numbers 
     1.0000   1.0000   1.0000   1.0000   1.0000   1.0000   1.0000   1.0000
     1.0000   1.0000   1.0000   1.0000   1.0000   1.0000   1.0000   0.0000
     0.0000   0.0000   0.0000   0.0000

          k = 0.0667 0.1155 0.0000 ( 17957 PWs)   bands (ev):

   -29.4135 -29.4077 -29.3436 -29.3405 -29.2969 -29.2417 -29.2388 -29.2025
   -29.1647 -29.1574 -11.9428  -7.1292  -1.9398  -1.3584  -1.1780   1.5128
     1.6421   2.3711   3.7807   3.8132

     occupation numbers 
     1.0000   1.0000   1.0000   1.0000   1.0000   1.0000   1.0000   1.0000
     1.0000   1.0000   1.0000   1.0000   1.0000   1.0000   1.0000   0.0000
     0.0000   0.0000   0.0000   0.0000

          k = 0.0667 0.1925 0.0000 ( 17973 PWs)   bands (ev):

   -29.4125 -29.3991 -29.3423 -29.3354 -29.2944 -29.2457 -29.2391 -29.2050
   -29.1742 -29.1580 -11.7571  -7.1638  -2.6657  -1.5725  -1.3008   1.2108
     2.0071   2.7316   3.9497   4.0395

     occupation numbers 
     1.0000   1.0000   1.0000   1.0000   1.0000   1.0000   1.0000   1.0000
     1.0000   1.0000   1.0000   1.0000   1.0000   1.0000   1.0000   0.0000
     0.0000   0.0000   0.0000   0.0000

          k = 0.0667 0.2694 0.0000 ( 17984 PWs)   bands (ev):

   -29.4112 -29.3871 -29.3404 -29.3283 -29.2904 -29.2516 -29.2399 -29.2092
   -29.1869 -29.1587 -11.4845  -7.2850  -3.2871  -1.9480  -1.3086   0.8551
     2.3410   2.8004   4.1463   4.3204

     occupation numbers 
     1.0000   1.0000   1.0000   1.0000   1.0000   1.0000   1.0000   1.0000
     1.0000   1.0000   1.0000   1.0000   1.0000   1.0000   1.0000   0.0000
     0.0000   0.0000   0.0000   0.0000

          k = 0.0667 0.3464 0.0000 ( 17990 PWs)   bands (ev):

   -29.4098 -29.3733 -29.3374 -29.3194 -29.2852 -29.2591 -29.2415 -29.2169
   -29.1992 -29.1595 -11.1350  -7.5517  -3.6779  -2.2578  -1.4538   0.6877
     2.4995   2.5285   4.4644   4.6230

     occupation numbers 
     1.0000   1.0000   1.0000   1.0000   1.0000   1.0000   1.0000   1.0000
     1.0000   1.0000   1.0000   1.0000   1.0000   1.0000   1.0000   0.0000
     0.0000   0.0000   0.0000   0.0000

          k = 0.0667 0.4234 0.0000 ( 18000 PWs)   bands (ev):

   -29.4085 -29.3610 -29.3311 -29.3095 -29.2801 -29.2680 -29.2446 -29.2303
   -29.2062 -29.1602 -10.7314  -7.9596  -3.8162  -2.4684  -1.7499   0.7475
     2.1325   2.5653   4.6288   4.9934

     occupation numbers 
     1.0000   1.0000   1.0000   1.0000   1.0000   1.0000   1.0000   1.0000
     1.0000   1.0000   1.0000   1.0000   1.0000   1.0000   1.0000   0.0000
     0.0000   0.0000   0.0000   0.0000

          k = 0.0667 0.5004 0.0000 ( 18002 PWs)   bands (ev):

   -29.4076 -29.3545 -29.3197 -29.2990 -29.2799 -29.2759 -29.2489 -29.2429
   -29.2092 -29.1606 -10.3365  -8.3965  -3.7953  -2.5532  -2.0860   0.9467
     1.7717   2.5926   4.4399   5.5744

     occupation numbers 
     1.0000   1.0000   1.0000   1.0000   1.0000   1.0000   1.0000   1.0000
     1.0000   1.0000   1.0000   1.0000   1.0000   1.0000   1.0000   0.0000
     0.0000   0.0000   0.0000   0.0000

          k = 0.0667 0.5774 0.0000 ( 18016 PWs)   bands (ev):

   -29.4073 -29.3528 -29.3117 -29.2908 -29.2875 -29.2785 -29.2503 -29.2480
   -29.2101 -29.1608 -10.1382  -8.6162  -3.7620  -2.5372  -2.2699   1.0989
     1.5753   2.6034   4.3378   6.2473

     occupation numbers 
     1.0000   1.0000   1.0000   1.0000   1.0000   1.0000   1.0000   1.0000
     1.0000   1.0000   1.0000   1.0000   1.0000   1.0000   1.0000   0.0000
     0.0000   0.0000   0.0000   0.0000

          k = 0.1333 0.2309 0.0000 ( 17975 PWs)   bands (ev):

   -29.4115 -29.3888 -29.3402 -29.3302 -29.2909 -29.2511 -29.2392 -29.2084
   -29.1850 -29.1587 -11.5290  -7.2557  -3.1263  -2.1153  -1.2844   1.3515
     1.8971   2.9212   4.1768   4.2311

     occupation numbers 
     1.0000   1.0000   1.0000   1.0000   1.0000   1.0000   1.0000   1.0000
     1.0000   1.0000   1.0000   1.0000   1.0000   1.0000   1.0000   0.0000
     0.0000   0.0000   0.0000   0.0000

          k = 0.1333 0.3079 0.0000 ( 17997 PWs)   bands (ev):

   -29.4103 -29.3756 -29.3376 -29.3233 -29.2858 -29.2584 -29.2396 -29.2146
   -29.1971 -29.1596 -11.2185  -7.4627  -3.4785  -2.5904  -1.3513   1.2084
     2.0430   2.8527   4.4170   4.5522

     occupation numbers 
     1.0000   1.0000   1.0000   1.0000   1.0000   1.0000   1.0000   1.0000
     1.0000   1.0000   1.0000   1.0000   1.0000   1.0000   1.0000   0.0000
     0.0000   0.0000   0.0000   0.0000

          k = 0.1333 0.3849 0.0000 ( 18011 PWs)   bands (ev):

   -29.4090 -29.3616 -29.3335 -29.3150 -29.2800 -29.2672 -29.2408 -29.2261
   -29.2061 -29.1605 -10.8398  -7.8094  -3.6818  -2.8892  -1.5618   1.1335
     2.0707   2.6563   4.7293   4.9259

     occupation numbers 
     1.0000   1.0000   1.0000   1.0000   1.0000   1.0000   1.0000   1.0000
     1.0000   1.0000   1.0000   1.0000   1.0000   1.0000   1.0000   0.0000
     0.0000   0.0000   0.0000   0.0000

          k = 0.1333 0.4619 0.0000 ( 18021 PWs)   bands (ev):

   -29.4080 -29.3514 -29.3249 -29.3056 -29.2786 -29.2739 -29.2443 -29.2397
   -29.2107 -29.1613 -10.4271  -8.2446  -3.7796  -2.9623  -1.8913   1.2087
     1.9499   2.5112   4.7311   5.4123

     occupation numbers 
     1.0000   1.0000   1.0000   1.0000   1.0000   1.0000   1.0000   1.0000
     1.0000   1.0000   1.0000   1.0000   1.0000   1.0000   1.0000   0.0000
     0.0000   0.0000   0.0000   0.0000

          k = 0.1333 0.5389 0.0000 ( 18009 PWs)   bands (ev):

   -29.4075 -29.3475 -29.3124 -29.2973 -29.2884 -29.2737 -29.2524 -29.2439
   -29.2127 -29.1617 -10.0875  -8.6127  -3.8279  -2.8565  -2.2077   1.3481
     1.7835   2.4628   4.5613   6.0421

     occupation numbers 
     1.0000   1.0000   1.0000   1.0000   1.0000   1.0000   1.0000   1.0000
     1.0000   1.0000   1.0000   1.0000   1.0000   1.0000   1.0000   0.0000
     0.0000   0.0000   0.0000   0.0000

          k = 0.2000 0.3464 0.0000 ( 18047 PWs)   bands (ev):

   -29.4093 -29.3616 -29.3341 -29.3174 -29.2799 -29.2672 -29.2392 -29.2246
   -29.2061 -29.1607 -10.8767  -7.7542  -3.5155  -3.1755  -1.4950   1.4985
     1.6932   2.9506   4.7284   4.8978

     occupation numbers 
     1.0000   1.0000   1.0000   1.0000   1.0000   1.0000   1.0000   1.0000
     1.0000   1.0000   1.0000   1.0000   1.0000   1.0000   1.0000   0.0000
     0.0000   0.0000   0.0000   0.0000

          k = 0.2000 0.4234 0.0000 ( 18026 PWs)   bands (ev):

   -29.4083 -29.3478 -29.3292 -29.3096 -29.2777 -29.2736 -29.2400 -29.2383
   -29.2122 -29.1618 -10.4778  -8.1458  -3.6767  -3.3288  -1.7574   1.3373
     1.8015   2.9264   5.0401   5.3563

     occupation numbers 
     1.0000   1.0000   1.0000   1.0000   1.0000   1.0000   1.0000   1.0000
     1.0000   1.0000   1.0000   1.0000   1.0000   1.0000   1.0000   0.0000
     0.0000   0.0000   0.0000   0.0000

          k = 0.2000 0.5004 0.0000 ( 18014 PWs)   bands (ev):

   -29.4077 -29.3400 -29.3189 -29.3007 -29.2890 -29.2698 -29.2535 -29.2391
   -29.2160 -29.1625 -10.0724  -8.5652  -3.9377  -3.0962  -2.0900   1.1317
     2.1045   2.7311   5.0226   5.9143

     occupation numbers 
     1.0000   1.0000   1.0000   1.0000   1.0000   1.0000   1.0000   1.0000
     1.0000   1.0000   1.0000   1.0000   1.0000   1.0000   1.0000   0.0000
     0.0000   0.0000   0.0000   0.0000

          k = 0.2000 0.5774 0.0000 ( 18009 PWs)   bands (ev):

   -29.4075 -29.3383 -29.3074 -29.3020 -29.2925 -29.2710 -29.2588 -29.2393
   -29.2174 -29.1628  -9.8500  -8.7960  -4.0273  -2.9212  -2.2988   1.0618
     2.4069   2.4617   4.9488   6.2740

     occupation numbers 
     1.0000   1.0000   1.0000   1.0000   1.0000   1.0000   1.0000   1.0000
     1.0000   1.0000   1.0000   1.0000   1.0000   1.0000   1.0000   0.0000
     0.0000   0.0000   0.0000   0.0000

          k = 0.2667 0.4619 0.0000 ( 18031 PWs)   bands (ev):

   -29.4078 -29.3341 -29.3251 -29.3014 -29.2892 -29.2684 -29.2539 -29.2368
   -29.2178 -29.1629 -10.0709  -8.5387  -3.9942  -3.1761  -2.0311   1.0282
     2.1087   3.0207   5.5733   5.8034

     occupation numbers 
     1.0000   1.0000   1.0000   1.0000   1.0000   1.0000   1.0000   1.0000
     1.0000   1.0000   1.0000   1.0000   1.0000   1.0000   1.0000   0.0000
     0.0000   0.0000   0.0000   0.0000

          k = 0.2667 0.5389 0.0000 ( 18050 PWs)   bands (ev):

   -29.4075 -29.3277 -29.3155 -29.3021 -29.2913 -29.2687 -29.2641 -29.2344
   -29.2221 -29.1635  -9.6873  -8.9168  -4.2054  -2.8900  -2.3293   0.8189
     2.4732   2.8570   5.6866   5.9617

     occupation numbers 
     1.0000   1.0000   1.0000   1.0000   1.0000   1.0000   1.0000   1.0000
     1.0000   1.0000   1.0000   1.0000   1.0000   1.0000   1.0000   0.0000
     0.0000   0.0000   0.0000   0.0000

          k = 0.3333 0.5774 0.0000 ( 18051 PWs)   bands (ev):

   -29.4074 -29.3154 -29.3149 -29.3139 -29.2800 -29.2797 -29.2644 -29.2286
   -29.2283 -29.1639  -9.2952  -9.2949  -4.3144  -2.6047  -2.6047   0.6918
     2.7520   2.7520   5.8142   6.4913

     occupation numbers 
     1.0000   1.0000   1.0000   1.0000   1.0000   1.0000   1.0000   1.0000
     1.0000   1.0000   1.0000   1.0000   1.0000   1.0000   1.0000   0.0000
     0.0000   0.0000   0.0000   0.0000

     highest occupied, lowest unoccupied level (ev):    -0.8288    0.4638

!    total energy              =    -363.80647004 Ry
     estimated scf accuracy    <       0.00000066 Ry

     The total energy is the sum of the following terms:
     one-electron contribution =    -770.24791081 Ry
     hartree contribution      =     389.34112202 Ry
     xc contribution           =     -90.87301387 Ry
     ewald contribution        =     107.97333262 Ry

     convergence has been achieved in   3 iterations

     Forces acting on atoms (cartesian axes, Ry/au):

     atom    1 type  1   force =     0.00000000    0.00000000   -0.00027860
     atom    2 type  1   force =     0.00000000    0.00000000    0.00027860
     The non-local contrib.  to forces
     atom    1 type  1   force =     0.00000000    0.00000000    0.61213338
     atom    2 type  1   force =     0.00000000   -0.00000000   -0.60717615
     The ionic contribution  to forces
     atom    1 type  1   force =    -0.00000001    0.00000001  -34.60129758
     atom    2 type  1   force =     0.00000001   -0.00000001   34.60129758
     The local contribution  to forces
     atom    1 type  1   force =     0.00000000   -0.00000000   33.99393965
     atom    2 type  1   force =     0.00000044   -0.00000025  -33.99303827
     The core correction contribution to forces
     atom    1 type  1   force =    -0.00000000    0.00000000   -0.00439391
     atom    2 type  1   force =     0.00000002   -0.00000001    0.00443166
     The Hubbard contrib.    to forces
     atom    1 type  1   force =     0.00000000    0.00000000    0.00000000
     atom    2 type  1   force =     0.00000000    0.00000000    0.00000000
     The SCF correction term to forces
     atom    1 type  1   force =    -0.00000000    0.00000000    0.00000000
     atom    2 type  1   force =     0.00000000   -0.00000000   -0.00246383

     Total force =     0.000279     Total SCF correction =     0.002464
     SCF correction compared to forces is large: reduce conv_thr to get better values


     Computing stress (Cartesian axis) and pressure

          total   stress  (Ry/bohr**3)                   (kbar)     P=       -0.51
  -0.00000250  -0.00000000   0.00000000           -0.37       -0.00        0.00
  -0.00000000  -0.00000250   0.00000000           -0.00       -0.37        0.00
   0.00000000   0.00000000  -0.00000540            0.00        0.00       -0.79

     kinetic stress (kbar)  13996.75     -0.00      0.00
                               -0.00  13996.75     -0.00
                                0.00      0.00  14028.63

     local   stress (kbar) -62512.12      0.00     -0.00
                                0.00 -62512.12      0.00
                               -0.00      0.00  57603.68

     nonloc. stress (kbar)  -6044.42     -0.00      0.00
                               -0.00  -6044.42      0.00
                                0.00      0.00  -6028.25

     hartree stress (kbar)  32177.83     -0.00      0.00
                               -0.00  32177.83     -0.00
                                0.00     -0.00 -25908.55

     exc-cor stress (kbar)   3403.26     -0.00      0.00
                               -0.00   3403.26     -0.00
                                0.00     -0.00   3402.06

     corecor stress (kbar)  -5267.87     -0.00      0.00
                               -0.00  -5267.87     -0.00
                                0.00     -0.00  -5268.26

     ewald   stress (kbar)  24246.20     -0.00      0.00
                               -0.00  24246.20     -0.00
                                0.00     -0.00 -37830.11

     hubbard stress (kbar)      0.00      0.00      0.00
                                0.00      0.00      0.00
                                0.00      0.00      0.00

     DFT-D   stress (kbar)      0.00      0.00      0.00
                                0.00      0.00      0.00
                                0.00      0.00      0.00

     XDM     stress (kbar)      0.00      0.00      0.00
                                0.00      0.00      0.00
                                0.00      0.00      0.00

     dft-nl  stress (kbar)      0.00      0.00      0.00
                                0.00      0.00      0.00
                                0.00      0.00      0.00

     TS-vdW  stress (kbar)      0.00      0.00      0.00
                                0.00      0.00      0.00
                                0.00      0.00      0.00


     Energy error            =      2.2E-07
     Gradient error          =      2.8E-04
     Cell gradient error     =      2.5E-06


     number of scf cycles    =   2
     number of bfgs steps    =   1

     enthalpy old            =    -363.8064698177 Ry
     enthalpy new            =    -363.8064700384 Ry

     CASE: enthalpy_new < enthalpy_old


     WARNING: bfgs curvature condition failed, Theta= 0.932
     new trust radius        =       0.0006407586 bohr
     new conv_thr            =       0.0000000100 Ry

     new unit-cell volume =   1489.55005 a.u.^3 (   220.72854 Ang^3 )
     density =      0.18072 g/cm^3

CELL_PARAMETERS (alat=  7.79020698)
   0.999926722   0.000000000   0.000000000
  -0.499963361   0.865961943   0.000000000
   0.000000000   0.000000000   3.638657093

ATOMIC_POSITIONS (crystal)
Sb            0.0000000000        0.0000000000        0.5000000000    0   0   0
Sb            0.3333333330        0.6666666670        0.6091931550



     Writing output data file ./tmp/Sb.save/
     NEW-OLD atomic charge density approx. for the potential
     extrapolated charge   29.99731, renormalised to   30.00000

     total cpu time spent up to now is       39.1 secs

     Self-consistent Calculation

     iteration #  1     ecut=    80.00 Ry     beta= 0.70
     Davidson diagonalization with overlap
     ethr =  1.00E-06,  avg # of iterations =  2.0

     Threshold (ethr) on eigenvalues was too large:
     Diagonalizing with lowered threshold

     Davidson diagonalization with overlap
     ethr =  2.24E-08,  avg # of iterations =  2.0

     total cpu time spent up to now is       45.2 secs

     total energy              =    -363.80646304 Ry
     estimated scf accuracy    <       0.00000698 Ry

     iteration #  2     ecut=    80.00 Ry     beta= 0.70
     Davidson diagonalization with overlap
     ethr =  2.33E-08,  avg # of iterations =  3.1

     total cpu time spent up to now is       48.6 secs

     total energy              =    -363.80646942 Ry
     estimated scf accuracy    <       0.00001086 Ry

     iteration #  3     ecut=    80.00 Ry     beta= 0.70
     Davidson diagonalization with overlap
     ethr =  2.33E-08,  avg # of iterations =  2.0

     total cpu time spent up to now is       51.3 secs

     total energy              =    -363.80647046 Ry
     estimated scf accuracy    <       0.00000176 Ry

     iteration #  4     ecut=    80.00 Ry     beta= 0.70
     Davidson diagonalization with overlap
     ethr =  5.88E-09,  avg # of iterations =  1.1

     total cpu time spent up to now is       53.8 secs

     total energy              =    -363.80647046 Ry
     estimated scf accuracy    <       0.00000064 Ry

     iteration #  5     ecut=    80.00 Ry     beta= 0.70
     Davidson diagonalization with overlap
     ethr =  2.13E-09,  avg # of iterations =  2.0

     total cpu time spent up to now is       56.5 secs

     total energy              =    -363.80647043 Ry
     estimated scf accuracy    <       0.00000027 Ry

     iteration #  6     ecut=    80.00 Ry     beta= 0.70
     Davidson diagonalization with overlap
     ethr =  9.14E-10,  avg # of iterations =  2.0

     total cpu time spent up to now is       59.1 secs

     total energy              =    -363.80647038 Ry
     estimated scf accuracy    <       0.00000011 Ry

     iteration #  7     ecut=    80.00 Ry     beta= 0.70
     Davidson diagonalization with overlap
     ethr =  3.65E-10,  avg # of iterations =  2.0

     total cpu time spent up to now is       62.1 secs

     End of self-consistent calculation

          k = 0.0000 0.0000 0.0000 ( 17913 PWs)   bands (ev):

   -29.4206 -29.4206 -29.3509 -29.3509 -29.3049 -29.2451 -29.2451 -29.2070
   -29.1634 -29.1634 -12.0875  -7.1311  -1.4140  -0.8316  -0.8316   0.7348
     1.9526   1.9526   3.6220   3.6238

     occupation numbers 
     1.0000   1.0000   1.0000   1.0000   1.0000   1.0000   1.0000   1.0000
     1.0000   1.0000   1.0000   1.0000   1.0000   1.0000   1.0000   0.0000
     0.0000   0.0000   0.0000   0.0000

          k = 0.0000 0.0770 0.0000 ( 17915 PWs)   bands (ev):

   -29.4203 -29.4184 -29.3506 -29.3495 -29.3043 -29.2460 -29.2451 -29.2076
   -29.1660 -29.1635 -12.0404  -7.1296  -1.3940  -1.3422  -0.9426   1.1370
     1.8547   2.0606   3.6776   3.6887

     occupation numbers 
     1.0000   1.0000   1.0000   1.0000   1.0000   1.0000   1.0000   1.0000
     1.0000   1.0000   1.0000   1.0000   1.0000   1.0000   1.0000   0.0000
     0.0000   0.0000   0.0000   0.0000

          k = 0.0000 0.1540 0.0000 ( 17941 PWs)   bands (ev):

   -29.4195 -29.4118 -29.3497 -29.3454 -29.3025 -29.2490 -29.2453 -29.2094
   -29.1735 -29.1639 -11.8999  -7.1384  -2.1965  -1.3453  -1.2128   1.1416
     2.1842   2.3033   3.8138   3.8859

     occupation numbers 
     1.0000   1.0000   1.0000   1.0000   1.0000   1.0000   1.0000   1.0000
     1.0000   1.0000   1.0000   1.0000   1.0000   1.0000   1.0000   0.0000
     0.0000   0.0000   0.0000   0.0000

          k = 0.0000 0.2310 0.0000 ( 17965 PWs)   bands (ev):

   -29.4183 -29.4014 -29.3483 -29.3389 -29.2994 -29.2538 -29.2460 -29.2126
   -29.1851 -29.1645 -11.6693  -7.2007  -2.9766  -1.5365  -1.3163   0.7529
     2.5368   2.6108   3.9891   4.1541

     occupation numbers 
     1.0000   1.0000   1.0000   1.0000   1.0000   1.0000   1.0000   1.0000
     1.0000   1.0000   1.0000   1.0000   1.0000   1.0000   1.0000   0.0000
     0.0000   0.0000   0.0000   0.0000

          k = 0.0000 0.3079 0.0000 ( 18001 PWs)   bands (ev):

   -29.4168 -29.3882 -29.3461 -29.3304 -29.2949 -29.2603 -29.2475 -29.2180
   -29.1985 -29.1652 -11.3557  -7.3831  -3.5371  -1.8429  -1.3981   0.4863
     2.5725   2.6765   4.2425   4.4351

     occupation numbers 
     1.0000   1.0000   1.0000   1.0000   1.0000   1.0000   1.0000   1.0000
     1.0000   1.0000   1.0000   1.0000   1.0000   1.0000   1.0000   0.0000
     0.0000   0.0000   0.0000   0.0000

          k = 0.0000 0.3849 0.0000 ( 18015 PWs)   bands (ev):

   -29.4154 -29.3747 -29.3418 -29.3205 -29.2898 -29.2683 -29.2502 -29.2285
   -29.2087 -29.1659 -10.9743  -7.7263  -3.8097  -2.0940  -1.6509   0.4608
     2.2468   2.7232   4.5752   4.6974

     occupation numbers 
     1.0000   1.0000   1.0000   1.0000   1.0000   1.0000   1.0000   1.0000
     1.0000   1.0000   1.0000   1.0000   1.0000   1.0000   1.0000   0.0000
     0.0000   0.0000   0.0000   0.0000

          k = 0.0000 0.4619 0.0000 ( 18032 PWs)   bands (ev):

   -29.4142 -29.3653 -29.3326 -29.3097 -29.2859 -29.2775 -29.2543 -29.2427
   -29.2134 -29.1665 -10.5626  -8.1723  -3.8389  -2.2698  -1.9877   0.6097
     1.9004   2.7205   4.4647   5.2167

     occupation numbers 
     1.0000   1.0000   1.0000   1.0000   1.0000   1.0000   1.0000   1.0000
     1.0000   1.0000   1.0000   1.0000   1.0000   1.0000   1.0000   0.0000
     0.0000   0.0000   0.0000   0.0000

          k = 0.0000 0.5389 0.0000 ( 18016 PWs)   bands (ev):

   -29.4136 -29.3615 -29.3211 -29.2987 -29.2877 -29.2868 -29.2568 -29.2529
   -29.2152 -29.1668 -10.2329  -8.5419  -3.7699  -2.3600  -2.2391   0.7793
     1.6598   2.7088   4.3023   5.8187

     occupation numbers 
     1.0000   1.0000   1.0000   1.0000   1.0000   1.0000   1.0000   1.0000
     1.0000   1.0000   1.0000   1.0000   1.0000   1.0000   1.0000   0.0000
     0.0000   0.0000   0.0000   0.0000

          k = 0.0667 0.1155 0.0000 ( 17957 PWs)   bands (ev):

   -29.4198 -29.4140 -29.3499 -29.3468 -29.3031 -29.2481 -29.2452 -29.2088
   -29.1710 -29.1638 -11.9465  -7.1330  -1.9426  -1.3614  -1.1808   1.5102
     1.6390   2.3681   3.7811   3.8130

     occupation numbers 
     1.0000   1.0000   1.0000   1.0000   1.0000   1.0000   1.0000   1.0000
     1.0000   1.0000   1.0000   1.0000   1.0000   1.0000   1.0000   0.0000
     0.0000   0.0000   0.0000   0.0000

          k = 0.0667 0.1925 0.0000 ( 17973 PWs)   bands (ev):

   -29.4188 -29.4054 -29.3486 -29.3418 -29.3006 -29.2521 -29.2454 -29.2113
   -29.1806 -29.1643 -11.7609  -7.1676  -2.6685  -1.5754  -1.3038   1.2078
     2.0042   2.7287   3.9498   4.0394

     occupation numbers 
     1.0000   1.0000   1.0000   1.0000   1.0000   1.0000   1.0000   1.0000
     1.0000   1.0000   1.0000   1.0000   1.0000   1.0000   1.0000   0.0000
     0.0000   0.0000   0.0000   0.0000

          k = 0.0667 0.2694 0.0000 ( 17984 PWs)   bands (ev):

   -29.4175 -29.3934 -29.3467 -29.3346 -29.2966 -29.2580 -29.2462 -29.2155
   -29.1933 -29.1650 -11.4882  -7.2888  -3.2900  -1.9509  -1.3116   0.8521
     2.3380   2.7975   4.1461   4.3206

     occupation numbers 
     1.0000   1.0000   1.0000   1.0000   1.0000   1.0000   1.0000   1.0000
     1.0000   1.0000   1.0000   1.0000   1.0000   1.0000   1.0000   0.0000
     0.0000   0.0000   0.0000   0.0000

          k = 0.0667 0.3464 0.0000 ( 17990 PWs)   bands (ev):

   -29.4160 -29.3796 -29.3438 -29.3258 -29.2915 -29.2655 -29.2479 -29.2232
   -29.2055 -29.1658 -11.1387  -7.5554  -3.6810  -2.2608  -1.4568   0.6846
     2.4965   2.5253   4.4639   4.6229

     occupation numbers 
     1.0000   1.0000   1.0000   1.0000   1.0000   1.0000   1.0000   1.0000
     1.0000   1.0000   1.0000   1.0000   1.0000   1.0000   1.0000   0.0000
     0.0000   0.0000   0.0000   0.0000

          k = 0.0667 0.4234 0.0000 ( 18000 PWs)   bands (ev):

   -29.4148 -29.3673 -29.3374 -29.3158 -29.2864 -29.2744 -29.2510 -29.2366
   -29.2125 -29.1665 -10.7351  -7.9633  -3.8194  -2.4714  -1.7530   0.7445
     2.1294   2.5620   4.6272   4.9934

     occupation numbers 
     1.0000   1.0000   1.0000   1.0000   1.0000   1.0000   1.0000   1.0000
     1.0000   1.0000   1.0000   1.0000   1.0000   1.0000   1.0000   0.0000
     0.0000   0.0000   0.0000   0.0000

          k = 0.0667 0.5004 0.0000 ( 18002 PWs)   bands (ev):

   -29.4139 -29.3608 -29.3259 -29.3054 -29.2862 -29.2822 -29.2552 -29.2492
   -29.2155 -29.1670 -10.3401  -8.4001  -3.7985  -2.5562  -2.0892   0.9437
     1.7686   2.5893   4.4380   5.5743

     occupation numbers 
     1.0000   1.0000   1.0000   1.0000   1.0000   1.0000   1.0000   1.0000
     1.0000   1.0000   1.0000   1.0000   1.0000   1.0000   1.0000   0.0000
     0.0000   0.0000   0.0000   0.0000

          k = 0.0667 0.5774 0.0000 ( 18016 PWs)   bands (ev):

   -29.4136 -29.3591 -29.3179 -29.2971 -29.2938 -29.2848 -29.2566 -29.2543
   -29.2164 -29.1672 -10.1418  -8.6198  -3.7653  -2.5401  -2.2731   1.0960
     1.5721   2.6001   4.3357   6.2470

     occupation numbers 
     1.0000   1.0000   1.0000   1.0000   1.0000   1.0000   1.0000   1.0000
     1.0000   1.0000   1.0000   1.0000   1.0000   1.0000   1.0000   0.0000
     0.0000   0.0000   0.0000   0.0000

          k = 0.1333 0.2310 0.0000 ( 17975 PWs)   bands (ev):

   -29.4178 -29.3951 -29.3466 -29.3365 -29.2971 -29.2575 -29.2455 -29.2147
   -29.1913 -29.1651 -11.5327  -7.2595  -3.1292  -2.1183  -1.2874   1.3485
     1.8942   2.9183   4.1769   4.2309

     occupation numbers 
     1.0000   1.0000   1.0000   1.0000   1.0000   1.0000   1.0000   1.0000
     1.0000   1.0000   1.0000   1.0000   1.0000   1.0000   1.0000   0.0000
     0.0000   0.0000   0.0000   0.0000

          k = 0.1333 0.3079 0.0000 ( 17997 PWs)   bands (ev):

   -29.4165 -29.3819 -29.3439 -29.3297 -29.2921 -29.2647 -29.2459 -29.2208
   -29.2035 -29.1660 -11.2222  -7.4665  -3.4815  -2.5934  -1.3543   1.2053
     2.0398   2.8497   4.4166   4.5522

     occupation numbers 
     1.0000   1.0000   1.0000   1.0000   1.0000   1.0000   1.0000   1.0000
     1.0000   1.0000   1.0000   1.0000   1.0000   1.0000   1.0000   0.0000
     0.0000   0.0000   0.0000   0.0000

          k = 0.1333 0.3849 0.0000 ( 18011 PWs)   bands (ev):

   -29.4153 -29.3679 -29.3398 -29.3213 -29.2863 -29.2736 -29.2471 -29.2324
   -29.2124 -29.1669 -10.8435  -7.8130  -3.6849  -2.8922  -1.5648   1.1304
     2.0674   2.6535   4.7282   4.9259

     occupation numbers 
     1.0000   1.0000   1.0000   1.0000   1.0000   1.0000   1.0000   1.0000
     1.0000   1.0000   1.0000   1.0000   1.0000   1.0000   1.0000   0.0000
     0.0000   0.0000   0.0000   0.0000

          k = 0.1333 0.4619 0.0000 ( 18021 PWs)   bands (ev):

   -29.4143 -29.3577 -29.3312 -29.3119 -29.2849 -29.2802 -29.2506 -29.2460
   -29.2170 -29.1676 -10.4307  -8.2482  -3.7828  -2.9653  -1.8944   1.2056
     1.9468   2.5081   4.7291   5.4123

     occupation numbers 
     1.0000   1.0000   1.0000   1.0000   1.0000   1.0000   1.0000   1.0000
     1.0000   1.0000   1.0000   1.0000   1.0000   1.0000   1.0000   0.0000
     0.0000   0.0000   0.0000   0.0000

          k = 0.1333 0.5389 0.0000 ( 18009 PWs)   bands (ev):

   -29.4137 -29.3538 -29.3187 -29.3036 -29.2948 -29.2801 -29.2586 -29.2502
   -29.2190 -29.1680 -10.0911  -8.6163  -3.8312  -2.8595  -2.2109   1.3449
     1.7805   2.4596   4.5593   6.0419

     occupation numbers 
     1.0000   1.0000   1.0000   1.0000   1.0000   1.0000   1.0000   1.0000
     1.0000   1.0000   1.0000   1.0000   1.0000   1.0000   1.0000   0.0000
     0.0000   0.0000   0.0000   0.0000

          k = 0.2000 0.3464 0.0000 ( 18047 PWs)   bands (ev):

   -29.4155 -29.3679 -29.3404 -29.3237 -29.2862 -29.2735 -29.2455 -29.2309
   -29.2125 -29.1671 -10.8804  -7.7579  -3.5186  -3.1786  -1.4981   1.4954
     1.6899   2.9477   4.7273   4.8978

     occupation numbers 
     1.0000   1.0000   1.0000   1.0000   1.0000   1.0000   1.0000   1.0000
     1.0000   1.0000   1.0000   1.0000   1.0000   1.0000   1.0000   0.0000
     0.0000   0.0000   0.0000   0.0000

          k = 0.2000 0.4234 0.0000 ( 18026 PWs)   bands (ev):

   -29.4146 -29.3541 -29.3355 -29.3159 -29.2840 -29.2800 -29.2463 -29.2446
   -29.2185 -29.1681 -10.4815  -8.1494  -3.6799  -3.3319  -1.7605   1.3339
     1.7984   2.9234   5.0384   5.3563

     occupation numbers 
     1.0000   1.0000   1.0000   1.0000   1.0000   1.0000   1.0000   1.0000
     1.0000   1.0000   1.0000   1.0000   1.0000   1.0000   1.0000   0.0000
     0.0000   0.0000   0.0000   0.0000

          k = 0.2000 0.5004 0.0000 ( 18014 PWs)   bands (ev):

   -29.4140 -29.3464 -29.3252 -29.3070 -29.2954 -29.2762 -29.2598 -29.2454
   -29.2223 -29.1689 -10.0760  -8.5688  -3.9409  -3.0993  -2.0931   1.1283
     2.1014   2.7281   5.0207   5.9142

     occupation numbers 
     1.0000   1.0000   1.0000   1.0000   1.0000   1.0000   1.0000   1.0000
     1.0000   1.0000   1.0000   1.0000   1.0000   1.0000   1.0000   0.0000
     0.0000   0.0000   0.0000   0.0000

          k = 0.2000 0.5774 0.0000 ( 18009 PWs)   bands (ev):

   -29.4137 -29.3447 -29.3137 -29.3083 -29.2988 -29.2774 -29.2650 -29.2456
   -29.2237 -29.1692  -9.8536  -8.7996  -4.0305  -2.9243  -2.3019   1.0584
     2.4040   2.4585   4.9469   6.2729

     occupation numbers 
     1.0000   1.0000   1.0000   1.0000   1.0000   1.0000   1.0000   1.0000
     1.0000   1.0000   1.0000   1.0000   1.0000   1.0000   1.0000   0.0000
     0.0000   0.0000   0.0000   0.0000

          k = 0.2667 0.4619 0.0000 ( 18031 PWs)   bands (ev):

   -29.4140 -29.3404 -29.3314 -29.3077 -29.2955 -29.2747 -29.2602 -29.2431
   -29.2241 -29.1692 -10.0746  -8.5423  -3.9974  -3.1793  -2.0341   1.0248
     2.1056   3.0176   5.5716   5.8030

     occupation numbers 
     1.0000   1.0000   1.0000   1.0000   1.0000   1.0000   1.0000   1.0000
     1.0000   1.0000   1.0000   1.0000   1.0000   1.0000   1.0000   0.0000
     0.0000   0.0000   0.0000   0.0000

          k = 0.2667 0.5389 0.0000 ( 18050 PWs)   bands (ev):

   -29.4137 -29.3340 -29.3218 -29.3084 -29.2975 -29.2750 -29.2704 -29.2407
   -29.2284 -29.1699  -9.6909  -8.9204  -4.2086  -2.8931  -2.3324   0.8155
     2.4701   2.8539   5.6849   5.9606

     occupation numbers 
     1.0000   1.0000   1.0000   1.0000   1.0000   1.0000   1.0000   1.0000
     1.0000   1.0000   1.0000   1.0000   1.0000   1.0000   1.0000   0.0000
     0.0000   0.0000   0.0000   0.0000

          k = 0.3334 0.5774 0.0000 ( 18051 PWs)   bands (ev):

   -29.4136 -29.3215 -29.3215 -29.3203 -29.2861 -29.2861 -29.2708 -29.2347
   -29.2347 -29.1703  -9.2987  -9.2987  -4.3176  -2.6078  -2.6078   0.6884
     2.7489   2.7489   5.8131   6.4901

     occupation numbers 
     1.0000   1.0000   1.0000   1.0000   1.0000   1.0000   1.0000   1.0000
     1.0000   1.0000   1.0000   1.0000   1.0000   1.0000   1.0000   0.0000
     0.0000   0.0000   0.0000   0.0000

     highest occupied, lowest unoccupied level (ev):    -0.8316    0.4608

!    total energy              =    -363.80647041 Ry
     estimated scf accuracy    <          8.1E-11 Ry

     The total energy is the sum of the following terms:
     one-electron contribution =    -770.26029953 Ry
     hartree contribution      =     389.35449985 Ry
     xc contribution           =     -90.87388423 Ry
     ewald contribution        =     107.97321351 Ry

     convergence has been achieved in   7 iterations

     Forces acting on atoms (cartesian axes, Ry/au):

     atom    1 type  1   force =     0.00000000   -0.00000000   -0.00016862
     atom    2 type  1   force =     0.00000000    0.00000000    0.00016862
     The non-local contrib.  to forces
     atom    1 type  1   force =     0.00000000    0.00000000    0.60973034
     atom    2 type  1   force =     0.00000000    0.00000000   -0.60976657
     The ionic contribution  to forces
     atom    1 type  1   force =    -0.00000001    0.00000001  -34.60668789
     atom    2 type  1   force =     0.00000001   -0.00000001   34.60668789
     The local contribution  to forces
     atom    1 type  1   force =    -0.00000000   -0.00000000   34.00122604
     atom    2 type  1   force =     0.00000044   -0.00000025  -34.00112338
     The core correction contribution to forces
     atom    1 type  1   force =     0.00000000    0.00000000   -0.00440876
     atom    2 type  1   force =     0.00000002   -0.00000001    0.00441331
     The Hubbard contrib.    to forces
     atom    1 type  1   force =     0.00000000    0.00000000    0.00000000
     atom    2 type  1   force =     0.00000000    0.00000000    0.00000000
     The SCF correction term to forces
     atom    1 type  1   force =    -0.00000000    0.00000000   -0.00000000
     atom    2 type  1   force =     0.00000000   -0.00000000   -0.00005512

     Total force =     0.000169     Total SCF correction =     0.000055
     SCF correction compared to forces is large: reduce conv_thr to get better values


     Computing stress (Cartesian axis) and pressure

          total   stress  (Ry/bohr**3)                   (kbar)     P=       -0.14
  -0.00000044  -0.00000000   0.00000000           -0.07       -0.00        0.00
   0.00000000  -0.00000044   0.00000000            0.00       -0.07        0.00
   0.00000000   0.00000000  -0.00000202            0.00        0.00       -0.30

     kinetic stress (kbar)  13998.32     -0.00      0.00
                                0.00  13998.32      0.00
                                0.00     -0.00  14030.21

     local   stress (kbar) -62518.73      0.00     -0.00
                                0.00 -62518.73      0.00
                               -0.00      0.00  57609.80

     nonloc. stress (kbar)  -6044.96      0.00      0.00
                                0.00  -6044.96      0.00
                                0.00      0.00  -6028.83

     hartree stress (kbar)  32181.85     -0.00     -0.00
                               -0.00  32181.85     -0.00
                               -0.00     -0.00 -25911.81

     exc-cor stress (kbar)   3403.56     -0.00      0.00
                               -0.00   3403.56     -0.00
                                0.00     -0.00   3402.35

     corecor stress (kbar)  -5268.36     -0.00      0.00
                               -0.00  -5268.36     -0.00
                                0.00     -0.00  -5268.75

     ewald   stress (kbar)  24248.25     -0.00      0.00
                               -0.00  24248.25     -0.00
                                0.00     -0.00 -37833.28

     hubbard stress (kbar)      0.00      0.00      0.00
                                0.00      0.00      0.00
                                0.00      0.00      0.00

     DFT-D   stress (kbar)      0.00      0.00      0.00
                                0.00      0.00      0.00
                                0.00      0.00      0.00

     XDM     stress (kbar)      0.00      0.00      0.00
                                0.00      0.00      0.00
                                0.00      0.00      0.00

     dft-nl  stress (kbar)      0.00      0.00      0.00
                                0.00      0.00      0.00
                                0.00      0.00      0.00

     TS-vdW  stress (kbar)      0.00      0.00      0.00
                                0.00      0.00      0.00
                                0.00      0.00      0.00


     Energy error            =      3.7E-07
     Gradient error          =      1.7E-04
     Cell gradient error     =      4.4E-07


     number of scf cycles    =   3
     number of bfgs steps    =   2

     enthalpy old            =    -363.8064700384 Ry
     enthalpy new            =    -363.8064704073 Ry

     CASE: enthalpy_new < enthalpy_old

     new trust radius        =       0.0003701755 bohr
     new conv_thr            =       0.0000000100 Ry

     new unit-cell volume =   1489.48841 a.u.^3 (   220.71941 Ang^3 )
     density =      0.18072 g/cm^3

CELL_PARAMETERS (alat=  7.79020698)
   0.999906033   0.000000000   0.000000000
  -0.499953016   0.865944026   0.000000000
   0.000000000   0.000000000   3.638657093

ATOMIC_POSITIONS (crystal)
Sb            0.0000000000        0.0000000000        0.5000000000    0   0   0
Sb            0.3333333330        0.6666666670        0.6092062142



     Writing output data file ./tmp/Sb.save/
     NEW-OLD atomic charge density approx. for the potential
     extrapolated charge   29.99876, renormalised to   30.00000

     total cpu time spent up to now is       65.3 secs

     Self-consistent Calculation

     iteration #  1     ecut=    80.00 Ry     beta= 0.70
     Davidson diagonalization with overlap
     ethr =  1.00E-06,  avg # of iterations =  2.0

     Threshold (ethr) on eigenvalues was too large:
     Diagonalizing with lowered threshold

     Davidson diagonalization with overlap
     ethr =  2.33E-09,  avg # of iterations =  3.0

     total cpu time spent up to now is       72.1 secs

     total energy              =    -363.80646940 Ry
     estimated scf accuracy    <       0.00000066 Ry

     iteration #  2     ecut=    80.00 Ry     beta= 0.70
     Davidson diagonalization with overlap
     ethr =  2.19E-09,  avg # of iterations =  3.0

     total cpu time spent up to now is       76.0 secs

     total energy              =    -363.80647035 Ry
     estimated scf accuracy    <       0.00000153 Ry

     iteration #  3     ecut=    80.00 Ry     beta= 0.70
     Davidson diagonalization with overlap
     ethr =  2.19E-09,  avg # of iterations =  2.0

     total cpu time spent up to now is       78.9 secs

     total energy              =    -363.80647044 Ry
     estimated scf accuracy    <       0.00000024 Ry

     iteration #  4     ecut=    80.00 Ry     beta= 0.70
     Davidson diagonalization with overlap
     ethr =  8.08E-10,  avg # of iterations =  1.0

     total cpu time spent up to now is       81.4 secs

     total energy              =    -363.80647043 Ry
     estimated scf accuracy    <       0.00000016 Ry

     iteration #  5     ecut=    80.00 Ry     beta= 0.70
     Davidson diagonalization with overlap
     ethr =  5.20E-10,  avg # of iterations =  1.0

     total cpu time spent up to now is       84.0 secs

     total energy              =    -363.80647041 Ry
     estimated scf accuracy    <       0.00000009 Ry

     iteration #  6     ecut=    80.00 Ry     beta= 0.70
     Davidson diagonalization with overlap
     ethr =  3.02E-10,  avg # of iterations =  2.0

     total cpu time spent up to now is       86.7 secs

     total energy              =    -363.80647040 Ry
     estimated scf accuracy    <       0.00000004 Ry

     iteration #  7     ecut=    80.00 Ry     beta= 0.70
     Davidson diagonalization with overlap
     ethr =  1.23E-10,  avg # of iterations =  2.0

     total cpu time spent up to now is       89.6 secs

     End of self-consistent calculation

          k = 0.0000 0.0000 0.0000 ( 17913 PWs)   bands (ev):

   -29.4197 -29.4197 -29.3500 -29.3500 -29.3040 -29.2442 -29.2442 -29.2061
   -29.1625 -29.1625 -12.0866  -7.1310  -1.4140  -0.8303  -0.8303   0.7361
     1.9535   1.9535   3.6222   3.6238

     occupation numbers 
     1.0000   1.0000   1.0000   1.0000   1.0000   1.0000   1.0000   1.0000
     1.0000   1.0000   1.0000   1.0000   1.0000   1.0000   1.0000   0.0000
     0.0000   0.0000   0.0000   0.0000

          k =-0.0000 0.0770 0.0000 ( 17915 PWs)   bands (ev):

   -29.4194 -29.4175 -29.3497 -29.3486 -29.3035 -29.2452 -29.2442 -29.2067
   -29.1651 -29.1627 -12.0394  -7.1294  -1.3940  -1.3410  -0.9413   1.1383
     1.8556   2.0614   3.6777   3.6889

     occupation numbers 
     1.0000   1.0000   1.0000   1.0000   1.0000   1.0000   1.0000   1.0000
     1.0000   1.0000   1.0000   1.0000   1.0000   1.0000   1.0000   0.0000
     0.0000   0.0000   0.0000   0.0000

          k =-0.0000 0.1540 0.0000 ( 17941 PWs)   bands (ev):

   -29.4186 -29.4109 -29.3488 -29.3445 -29.3017 -29.2481 -29.2445 -29.2086
   -29.1726 -29.1630 -11.8989  -7.1382  -2.1954  -1.3453  -1.2115   1.1425
     2.1851   2.3041   3.8139   3.8861

     occupation numbers 
     1.0000   1.0000   1.0000   1.0000   1.0000   1.0000   1.0000   1.0000
     1.0000   1.0000   1.0000   1.0000   1.0000   1.0000   1.0000   0.0000
     0.0000   0.0000   0.0000   0.0000

          k =-0.0000 0.2310 0.0000 ( 17965 PWs)   bands (ev):

   -29.4174 -29.4005 -29.3474 -29.3380 -29.2985 -29.2529 -29.2451 -29.2117
   -29.1842 -29.1636 -11.6683  -7.2004  -2.9756  -1.5353  -1.3162   0.7537
     2.5374   2.6115   3.9893   4.1543

     occupation numbers 
     1.0000   1.0000   1.0000   1.0000   1.0000   1.0000   1.0000   1.0000
     1.0000   1.0000   1.0000   1.0000   1.0000   1.0000   1.0000   0.0000
     0.0000   0.0000   0.0000   0.0000

          k =-0.0000 0.3079 0.0000 ( 18001 PWs)   bands (ev):

   -29.4159 -29.3873 -29.3452 -29.3295 -29.2940 -29.2594 -29.2466 -29.2171
   -29.1977 -29.1643 -11.3548  -7.3826  -3.5363  -1.8417  -1.3979   0.4869
     2.5731   2.6770   4.2426   4.4352

     occupation numbers 
     1.0000   1.0000   1.0000   1.0000   1.0000   1.0000   1.0000   1.0000
     1.0000   1.0000   1.0000   1.0000   1.0000   1.0000   1.0000   0.0000
     0.0000   0.0000   0.0000   0.0000

          k =-0.0000 0.3849 0.0000 ( 18015 PWs)   bands (ev):

   -29.4144 -29.3738 -29.3409 -29.3196 -29.2889 -29.2674 -29.2494 -29.2276
   -29.2079 -29.1650 -10.9733  -7.7256  -3.8091  -2.0928  -1.6506   0.4613
     2.2472   2.7236   4.5753   4.6975

     occupation numbers 
     1.0000   1.0000   1.0000   1.0000   1.0000   1.0000   1.0000   1.0000
     1.0000   1.0000   1.0000   1.0000   1.0000   1.0000   1.0000   0.0000
     0.0000   0.0000   0.0000   0.0000

          k =-0.0000 0.4619 0.0000 ( 18032 PWs)   bands (ev):

   -29.4133 -29.3643 -29.3317 -29.3089 -29.2850 -29.2766 -29.2534 -29.2418
   -29.2125 -29.1656 -10.5616  -8.1715  -3.8384  -2.2686  -1.9874   0.6103
     1.9007   2.7209   4.4649   5.2168

     occupation numbers 
     1.0000   1.0000   1.0000   1.0000   1.0000   1.0000   1.0000   1.0000
     1.0000   1.0000   1.0000   1.0000   1.0000   1.0000   1.0000   0.0000
     0.0000   0.0000   0.0000   0.0000

          k =-0.0000 0.5389 0.0000 ( 18016 PWs)   bands (ev):

   -29.4126 -29.3606 -29.3202 -29.2978 -29.2869 -29.2859 -29.2560 -29.2520
   -29.2143 -29.1659 -10.2319  -8.5410  -3.7694  -2.3587  -2.2388   0.7801
     1.6598   2.7091   4.3024   5.8188

     occupation numbers 
     1.0000   1.0000   1.0000   1.0000   1.0000   1.0000   1.0000   1.0000
     1.0000   1.0000   1.0000   1.0000   1.0000   1.0000   1.0000   0.0000
     0.0000   0.0000   0.0000   0.0000

          k = 0.0667 0.1155 0.0000 ( 17957 PWs)   bands (ev):

   -29.4189 -29.4130 -29.3490 -29.3459 -29.3023 -29.2472 -29.2443 -29.2080
   -29.1702 -29.1629 -11.9456  -7.1328  -1.9414  -1.3614  -1.1796   1.5114
     1.6397   2.3689   3.7812   3.8133

     occupation numbers 
     1.0000   1.0000   1.0000   1.0000   1.0000   1.0000   1.0000   1.0000
     1.0000   1.0000   1.0000   1.0000   1.0000   1.0000   1.0000   0.0000
     0.0000   0.0000   0.0000   0.0000

          k = 0.0667 0.1925 0.0000 ( 17973 PWs)   bands (ev):

   -29.4179 -29.4045 -29.3477 -29.3409 -29.2997 -29.2512 -29.2446 -29.2105
   -29.1797 -29.1635 -11.7599  -7.1673  -2.6674  -1.5742  -1.3037   1.2085
     2.0050   2.7294   3.9500   4.0396

     occupation numbers 
     1.0000   1.0000   1.0000   1.0000   1.0000   1.0000   1.0000   1.0000
     1.0000   1.0000   1.0000   1.0000   1.0000   1.0000   1.0000   0.0000
     0.0000   0.0000   0.0000   0.0000

          k = 0.0667 0.2695 0.0000 ( 17984 PWs)   bands (ev):

[...]
     1.0000   1.0000   1.0000   1.0000   1.0000   1.0000   1.0000   0.0000
     0.0000   0.0000   0.0000   0.0000

          k =-0.0000 0.0770 0.0000 ( 17911 PWs)   bands (ev):

   -29.4202 -29.4182 -29.3504 -29.3494 -29.3042 -29.2459 -29.2450 -29.2074
   -29.1658 -29.1634 -12.0402  -7.1295  -1.3940  -1.3418  -0.9421   1.1376
     1.8551   2.0610   3.6776   3.6888

     occupation numbers 
     1.0000   1.0000   1.0000   1.0000   1.0000   1.0000   1.0000   1.0000
     1.0000   1.0000   1.0000   1.0000   1.0000   1.0000   1.0000   0.0000
     0.0000   0.0000   0.0000   0.0000

          k =-0.0000 0.1540 0.0000 ( 17941 PWs)   bands (ev):

   -29.4194 -29.4116 -29.3495 -29.3452 -29.3024 -29.2488 -29.2452 -29.2093
   -29.1733 -29.1637 -11.8997  -7.1383  -2.1961  -1.3453  -1.2123   1.1420
     2.1847   2.3037   3.8138   3.8860

     occupation numbers 
     1.0000   1.0000   1.0000   1.0000   1.0000   1.0000   1.0000   1.0000
     1.0000   1.0000   1.0000   1.0000   1.0000   1.0000   1.0000   0.0000
     0.0000   0.0000   0.0000   0.0000

          k =-0.0000 0.2310 0.0000 ( 17951 PWs)   bands (ev):

   -29.4181 -29.4012 -29.3481 -29.3387 -29.2992 -29.2536 -29.2459 -29.2124
   -29.1849 -29.1643 -11.6691  -7.2006  -2.9763  -1.5361  -1.3162   0.7532
     2.5371   2.6111   3.9892   4.1542

     occupation numbers 
     1.0000   1.0000   1.0000   1.0000   1.0000   1.0000   1.0000   1.0000
     1.0000   1.0000   1.0000   1.0000   1.0000   1.0000   1.0000   0.0000
     0.0000   0.0000   0.0000   0.0000

          k =-0.0000 0.3079 0.0000 ( 17989 PWs)   bands (ev):

   -29.4166 -29.3881 -29.3460 -29.3302 -29.2948 -29.2601 -29.2473 -29.2178
   -29.1984 -29.1650 -11.3555  -7.3829  -3.5369  -1.8425  -1.3980   0.4865
     2.5728   2.6768   4.2426   4.4352

     occupation numbers 
     1.0000   1.0000   1.0000   1.0000   1.0000   1.0000   1.0000   1.0000
     1.0000   1.0000   1.0000   1.0000   1.0000   1.0000   1.0000   0.0000
     0.0000   0.0000   0.0000   0.0000

          k =-0.0000 0.3849 0.0000 ( 18015 PWs)   bands (ev):

   -29.4152 -29.3746 -29.3416 -29.3203 -29.2896 -29.2681 -29.2501 -29.2283
   -29.2085 -29.1657 -10.9741  -7.7260  -3.8096  -2.0936  -1.6508   0.4609
     2.2470   2.7235   4.5753   4.6975

     occupation numbers 
     1.0000   1.0000   1.0000   1.0000   1.0000   1.0000   1.0000   1.0000
     1.0000   1.0000   1.0000   1.0000   1.0000   1.0000   1.0000   0.0000
     0.0000   0.0000   0.0000   0.0000

          k =-0.0000 0.4619 0.0000 ( 18028 PWs)   bands (ev):

   -29.4140 -29.3651 -29.3324 -29.3096 -29.2857 -29.2774 -29.2542 -29.2425
   -29.2132 -29.1663 -10.5623  -8.1720  -3.8388  -2.2694  -1.9876   0.6099
     1.9005   2.7208   4.4648   5.2168

     occupation numbers 
     1.0000   1.0000   1.0000   1.0000   1.0000   1.0000   1.0000   1.0000
     1.0000   1.0000   1.0000   1.0000   1.0000   1.0000   1.0000   0.0000
     0.0000   0.0000   0.0000   0.0000

          k =-0.0000 0.5389 0.0000 ( 18016 PWs)   bands (ev):

   -29.4134 -29.3613 -29.3209 -29.2986 -29.2876 -29.2866 -29.2567 -29.2527
   -29.2150 -29.1666 -10.2326  -8.5416  -3.7698  -2.3595  -2.2390   0.7796
     1.6598   2.7090   4.3023   5.8189

     occupation numbers 
     1.0000   1.0000   1.0000   1.0000   1.0000   1.0000   1.0000   1.0000
     1.0000   1.0000   1.0000   1.0000   1.0000   1.0000   1.0000   0.0000
     0.0000   0.0000   0.0000   0.0000

          k = 0.0667 0.1155 0.0000 ( 17945 PWs)   bands (ev):

   -29.4196 -29.4138 -29.3497 -29.3467 -29.3030 -29.2479 -29.2450 -29.2087
   -29.1709 -29.1636 -11.9464  -7.1330  -1.9421  -1.3615  -1.1803   1.5107
     1.6393   2.3685   3.7811   3.8132

     occupation numbers 
     1.0000   1.0000   1.0000   1.0000   1.0000   1.0000   1.0000   1.0000
     1.0000   1.0000   1.0000   1.0000   1.0000   1.0000   1.0000   0.0000
     0.0000   0.0000   0.0000   0.0000

          k = 0.0667 0.1925 0.0000 ( 17971 PWs)   bands (ev):

   -29.4186 -29.4052 -29.3484 -29.3416 -29.3004 -29.2519 -29.2453 -29.2112
   -29.1804 -29.1642 -11.7607  -7.1675  -2.6682  -1.5750  -1.3038   1.2081
     2.0046   2.7291   3.9499   4.0395

     occupation numbers 
     1.0000   1.0000   1.0000   1.0000   1.0000   1.0000   1.0000   1.0000
     1.0000   1.0000   1.0000   1.0000   1.0000   1.0000   1.0000   0.0000
     0.0000   0.0000   0.0000   0.0000

          k = 0.0667 0.2695 0.0000 ( 17980 PWs)   bands (ev):

   -29.4173 -29.3932 -29.3466 -29.3344 -29.2965 -29.2578 -29.2461 -29.2153
   -29.1931 -29.1649 -11.4880  -7.2886  -3.2898  -1.9505  -1.3115   0.8523
     2.3383   2.7978   4.1462   4.3206

     occupation numbers 
     1.0000   1.0000   1.0000   1.0000   1.0000   1.0000   1.0000   1.0000
     1.0000   1.0000   1.0000   1.0000   1.0000   1.0000   1.0000   0.0000
     0.0000   0.0000   0.0000   0.0000

          k = 0.0667 0.3464 0.0000 ( 17990 PWs)   bands (ev):

   -29.4159 -29.3794 -29.3436 -29.3256 -29.2913 -29.2653 -29.2477 -29.2230
   -29.2054 -29.1657 -11.1385  -7.5552  -3.6809  -2.2604  -1.4567   0.6848
     2.4968   2.5255   4.4640   4.6230

     occupation numbers 
     1.0000   1.0000   1.0000   1.0000   1.0000   1.0000   1.0000   1.0000
     1.0000   1.0000   1.0000   1.0000   1.0000   1.0000   1.0000   0.0000
     0.0000   0.0000   0.0000   0.0000

          k = 0.0667 0.4234 0.0000 ( 17998 PWs)   bands (ev):

   -29.4146 -29.3672 -29.3372 -29.3156 -29.2862 -29.2742 -29.2508 -29.2364
   -29.2123 -29.1664 -10.7348  -7.9630  -3.8193  -2.4710  -1.7529   0.7447
     2.1296   2.5622   4.6273   4.9935

     occupation numbers 
     1.0000   1.0000   1.0000   1.0000   1.0000   1.0000   1.0000   1.0000
     1.0000   1.0000   1.0000   1.0000   1.0000   1.0000   1.0000   0.0000
     0.0000   0.0000   0.0000   0.0000

          k = 0.0667 0.5004 0.0000 ( 17998 PWs)   bands (ev):

   -29.4137 -29.3606 -29.3258 -29.3052 -29.2861 -29.2821 -29.2550 -29.2490
   -29.2154 -29.1668 -10.3398  -8.3999  -3.7984  -2.5559  -2.0891   0.9440
     1.7687   2.5894   4.4380   5.5744

     occupation numbers 
     1.0000   1.0000   1.0000   1.0000   1.0000   1.0000   1.0000   1.0000
     1.0000   1.0000   1.0000   1.0000   1.0000   1.0000   1.0000   0.0000
     0.0000   0.0000   0.0000   0.0000

          k = 0.0667 0.5774 0.0000 ( 18004 PWs)   bands (ev):

   -29.4134 -29.3590 -29.3178 -29.2970 -29.2936 -29.2847 -29.2564 -29.2542
   -29.2162 -29.1670 -10.1416  -8.6196  -3.7652  -2.5397  -2.2731   1.0964
     1.5721   2.6002   4.3358   6.1449

     occupation numbers 
     1.0000   1.0000   1.0000   1.0000   1.0000   1.0000   1.0000   1.0000
     1.0000   1.0000   1.0000   1.0000   1.0000   1.0000   1.0000   0.0000
     0.0000   0.0000   0.0000   0.0000

          k = 0.1333 0.2310 0.0000 ( 17975 PWs)   bands (ev):

   -29.4176 -29.3949 -29.3464 -29.3363 -29.2970 -29.2573 -29.2454 -29.2146
   -29.1912 -29.1649 -11.5325  -7.2593  -3.1289  -2.1179  -1.2874   1.3487
     1.8946   2.9186   4.1770   4.2311

     occupation numbers 
     1.0000   1.0000   1.0000   1.0000   1.0000   1.0000   1.0000   1.0000
     1.0000   1.0000   1.0000   1.0000   1.0000   1.0000   1.0000   0.0000
     0.0000   0.0000   0.0000   0.0000

          k = 0.1333 0.3079 0.0000 ( 17996 PWs)   bands (ev):

   -29.4164 -29.3817 -29.3438 -29.3295 -29.2920 -29.2646 -29.2458 -29.2207
   -29.2033 -29.1658 -11.2220  -7.4662  -3.4813  -2.5931  -1.3542   1.2055
     2.0400   2.8501   4.4168   4.5523

     occupation numbers 
     1.0000   1.0000   1.0000   1.0000   1.0000   1.0000   1.0000   1.0000
     1.0000   1.0000   1.0000   1.0000   1.0000   1.0000   1.0000   0.0000
     0.0000   0.0000   0.0000   0.0000

          k = 0.1333 0.3849 0.0000 ( 18003 PWs)   bands (ev):

   -29.4151 -29.3677 -29.3397 -29.3211 -29.2862 -29.2734 -29.2470 -29.2322
   -29.2122 -29.1667 -10.8432  -7.8128  -3.6848  -2.8919  -1.5647   1.1305
     2.0675   2.6538   4.7284   4.9260

     occupation numbers 
     1.0000   1.0000   1.0000   1.0000   1.0000   1.0000   1.0000   1.0000
     1.0000   1.0000   1.0000   1.0000   1.0000   1.0000   1.0000   0.0000
     0.0000   0.0000   0.0000   0.0000

          k = 0.1333 0.4619 0.0000 ( 18009 PWs)   bands (ev):

   -29.4141 -29.3575 -29.3311 -29.3117 -29.2848 -29.2801 -29.2505 -29.2458
   -29.2168 -29.1675 -10.4305  -8.2479  -3.7827  -2.9651  -1.8943   1.2057
     1.9470   2.5083   4.7293   5.4124

     occupation numbers 
     1.0000   1.0000   1.0000   1.0000   1.0000   1.0000   1.0000   1.0000
     1.0000   1.0000   1.0000   1.0000   1.0000   1.0000   1.0000   0.0000
     0.0000   0.0000   0.0000   0.0000

          k = 0.1333 0.5389 0.0000 ( 18000 PWs)   bands (ev):

   -29.4136 -29.3537 -29.3185 -29.3035 -29.2946 -29.2799 -29.2584 -29.2500
   -29.2189 -29.1679 -10.0909  -8.6160  -3.8310  -2.8593  -2.2108   1.3449
     1.7808   2.4597   4.5594   6.0420

     occupation numbers 
     1.0000   1.0000   1.0000   1.0000   1.0000   1.0000   1.0000   1.0000
     1.0000   1.0000   1.0000   1.0000   1.0000   1.0000   1.0000   0.0000
     0.0000   0.0000   0.0000   0.0000

          k = 0.2000 0.3464 0.0000 ( 18037 PWs)   bands (ev):

   -29.4154 -29.3677 -29.3403 -29.3235 -29.2860 -29.2734 -29.2454 -29.2307
   -29.2123 -29.1669 -10.8802  -7.7577  -3.5184  -3.1782  -1.4979   1.4955
     1.6901   2.9481   4.7277   4.8980

     occupation numbers 
     1.0000   1.0000   1.0000   1.0000   1.0000   1.0000   1.0000   1.0000
     1.0000   1.0000   1.0000   1.0000   1.0000   1.0000   1.0000   0.0000
     0.0000   0.0000   0.0000   0.0000

          k = 0.2000 0.4234 0.0000 ( 18022 PWs)   bands (ev):

   -29.4144 -29.3540 -29.3354 -29.3157 -29.2839 -29.2798 -29.2461 -29.2444
   -29.2183 -29.1680 -10.4813  -8.1492  -3.6796  -3.3318  -1.7604   1.3340
     1.7985   2.9237   5.0387   5.3565

     occupation numbers 
     1.0000   1.0000   1.0000   1.0000   1.0000   1.0000   1.0000   1.0000
     1.0000   1.0000   1.0000   1.0000   1.0000   1.0000   1.0000   0.0000
     0.0000   0.0000   0.0000   0.0000

          k = 0.2000 0.5004 0.0000 ( 18014 PWs)   bands (ev):

   -29.4138 -29.3462 -29.3251 -29.3068 -29.2952 -29.2760 -29.2596 -29.2453
   -29.2222 -29.1687 -10.0757  -8.5685  -3.9407  -3.0991  -2.0930   1.1283
     2.1015   2.7283   5.0209   5.9145

     occupation numbers 
     1.0000   1.0000   1.0000   1.0000   1.0000   1.0000   1.0000   1.0000
     1.0000   1.0000   1.0000   1.0000   1.0000   1.0000   1.0000   0.0000
     0.0000   0.0000   0.0000   0.0000

          k = 0.2000 0.5774 0.0000 ( 18005 PWs)   bands (ev):

   -29.4136 -29.3445 -29.3135 -29.3082 -29.2986 -29.2772 -29.2649 -29.2455
   -29.2236 -29.1690  -9.8533  -8.7993  -4.0303  -2.9241  -2.3018   1.0584
     2.4042   2.4586   4.9472   6.2731

     occupation numbers 
     1.0000   1.0000   1.0000   1.0000   1.0000   1.0000   1.0000   1.0000
     1.0000   1.0000   1.0000   1.0000   1.0000   1.0000   1.0000   0.0000
     0.0000   0.0000   0.0000   0.0000

          k = 0.2667 0.4619 0.0000 ( 18027 PWs)   bands (ev):

   -29.4139 -29.3402 -29.3313 -29.3075 -29.2954 -29.2746 -29.2600 -29.2430
   -29.2239 -29.1691 -10.0743  -8.5420  -3.9971  -3.1791  -2.0340   1.0248
     2.1057   3.0179   5.5720   5.8032

     occupation numbers 
     1.0000   1.0000   1.0000   1.0000   1.0000   1.0000   1.0000   1.0000
     1.0000   1.0000   1.0000   1.0000   1.0000   1.0000   1.0000   0.0000
     0.0000   0.0000   0.0000   0.0000

          k = 0.2667 0.5389 0.0000 ( 18046 PWs)   bands (ev):

   -29.4136 -29.3339 -29.3217 -29.3083 -29.2973 -29.2748 -29.2702 -29.2406
   -29.2282 -29.1697  -9.6906  -8.9201  -4.2084  -2.8930  -2.3323   0.8154
     2.4702   2.8541   5.6853   5.9608

     occupation numbers 
     1.0000   1.0000   1.0000   1.0000   1.0000   1.0000   1.0000   1.0000
     1.0000   1.0000   1.0000   1.0000   1.0000   1.0000   1.0000   0.0000
     0.0000   0.0000   0.0000   0.0000

          k = 0.3334 0.5774 0.0000 ( 18051 PWs)   bands (ev):

   -29.4135 -29.3213 -29.3213 -29.3201 -29.2860 -29.2859 -29.2707 -29.2346
   -29.2346 -29.1701  -9.2984  -9.2984  -4.3174  -2.6077  -2.6077   0.6884
     2.7490   2.7490   5.8133   6.4906

     occupation numbers 
     1.0000   1.0000   1.0000   1.0000   1.0000   1.0000   1.0000   1.0000
     1.0000   1.0000   1.0000   1.0000   1.0000   1.0000   1.0000   0.0000
     0.0000   0.0000   0.0000   0.0000

     highest occupied, lowest unoccupied level (ev):    -0.8311    0.4609

!    total energy              =    -363.80646972 Ry
     estimated scf accuracy    <          8.2E-10 Ry

     The total energy is the sum of the following terms:
     one-electron contribution =    -770.27024470 Ry
     hartree contribution      =     389.35979086 Ry
     xc contribution           =     -90.87392255 Ry
     ewald contribution        =     107.97790667 Ry

     convergence has been achieved in   8 iterations

     Forces acting on atoms (cartesian axes, Ry/au):

     atom    1 type  1   force =    -0.00000000    0.00000000    0.00008928
     atom    2 type  1   force =     0.00000000   -0.00000000   -0.00008928
     The non-local contrib.  to forces
     atom    1 type  1   force =    -0.00000000    0.00000000    0.60998138
     atom    2 type  1   force =    -0.00000000    0.00000000   -0.60995084
     The ionic contribution  to forces
     atom    1 type  1   force =    -0.00000001    0.00000001  -34.60858366
     atom    2 type  1   force =     0.00000001   -0.00000001   34.60858366
     The local contribution  to forces
     atom    1 type  1   force =    -0.00000000   -0.00000000   34.00302468
     atom    2 type  1   force =     0.00000044   -0.00000025  -34.00319441
     The core correction contribution to forces
     atom    1 type  1   force =     0.00000000    0.00000000   -0.00441487
     atom    2 type  1   force =     0.00000002   -0.00000001    0.00441486
     The Hubbard contrib.    to forces
     atom    1 type  1   force =     0.00000000    0.00000000    0.00000000
     atom    2 type  1   force =     0.00000000    0.00000000    0.00000000
     The SCF correction term to forces
     atom    1 type  1   force =    -0.00000000    0.00000000    0.00000000
     atom    2 type  1   force =     0.00000000   -0.00000000    0.00010069

     Total force =     0.000089     Total SCF correction =     0.000101
     SCF correction compared to forces is large: reduce conv_thr to get better values


     Computing stress (Cartesian axis) and pressure

          total   stress  (Ry/bohr**3)                   (kbar)     P=       -0.12
  -0.00000030  -0.00000000  -0.00000000           -0.04       -0.00       -0.00
   0.00000000  -0.00000030   0.00000000            0.00       -0.04        0.00
   0.00000000  -0.00000000  -0.00000189            0.00       -0.00       -0.28

     kinetic stress (kbar)  13998.86      0.00     -0.00
                                0.00  13998.86      0.00
                                0.00     -0.00  14030.74

     local   stress (kbar) -62522.15      0.00     -0.00
                                0.00 -62522.15      0.00
                               -0.00      0.00  57613.20

     nonloc. stress (kbar)  -6045.19      0.00      0.00
                                0.00  -6045.19      0.00
                                0.00     -0.00  -6029.04

     hartree stress (kbar)  32183.62     -0.00      0.00
                               -0.00  32183.62     -0.00
                                0.00     -0.00 -25913.41

     exc-cor stress (kbar)   3403.68     -0.00      0.00
                               -0.00   3403.68     -0.00
                                0.00     -0.00   3402.48

     corecor stress (kbar)  -5268.56     -0.00      0.00
                               -0.00  -5268.56     -0.00
                                0.00     -0.00  -5268.94

     ewald   stress (kbar)  24249.69     -0.00      0.00
                               -0.00  24249.69     -0.00
                                0.00     -0.00 -37835.29

     hubbard stress (kbar)      0.00      0.00      0.00
                                0.00      0.00      0.00
                                0.00      0.00      0.00

     DFT-D   stress (kbar)      0.00      0.00      0.00
                                0.00      0.00      0.00
                                0.00      0.00      0.00

     XDM     stress (kbar)      0.00      0.00      0.00
                                0.00      0.00      0.00
                                0.00      0.00      0.00

     dft-nl  stress (kbar)      0.00      0.00      0.00
                                0.00      0.00      0.00
                                0.00      0.00      0.00

     TS-vdW  stress (kbar)      0.00      0.00      0.00
                                0.00      0.00      0.00
                                0.00      0.00      0.00



     Writing output data file ./tmp/Sb.save/

     init_run     :      2.96s CPU      3.06s WALL (       2 calls)
     electrons    :    160.91s CPU    169.82s WALL (       8 calls)
     update_pot   :      4.62s CPU      4.68s WALL (       6 calls)
     forces       :      4.83s CPU      5.15s WALL (       8 calls)
     stress       :     12.86s CPU     13.24s WALL (       8 calls)

     Called by init_run:
     wfcinit      :      1.76s CPU      1.84s WALL (       2 calls)
     wfcinit:atom :      0.03s CPU      0.03s WALL (      54 calls)
     wfcinit:wfcr :      1.68s CPU      1.76s WALL (      54 calls)
     potinit      :      0.40s CPU      0.41s WALL (       2 calls)
     hinit0       :      0.74s CPU      0.75s WALL (       2 calls)

     Called by electrons:
     c_bands      :    136.14s CPU    144.61s WALL (      53 calls)
     sum_band     :     23.54s CPU     23.88s WALL (      53 calls)
     v_of_rho     :      1.19s CPU      1.27s WALL (      54 calls)
     v_h          :      0.08s CPU      0.09s WALL (      54 calls)
     v_xc         :      1.43s CPU      1.52s WALL (      70 calls)
     mix_rho      :      0.14s CPU      0.17s WALL (      53 calls)

     Called by c_bands:
     init_us_2    :      1.94s CPU      2.14s WALL (    3348 calls)
     cegterg      :    131.91s CPU    140.22s WALL (    1431 calls)

     Called by sum_band:
     sum_band:wei :      0.00s CPU      0.00s WALL (      53 calls)
     sum_band:loo :     23.36s CPU     23.68s WALL (      53 calls)
     sum_band:buf :      0.18s CPU      0.18s WALL (    1431 calls)
     sum_band:ini :      0.84s CPU      0.95s WALL (    1431 calls)

     Called by *egterg:
     cdiaghg      :      1.45s CPU      1.76s WALL (    5192 calls)
     cegterg:over :      8.19s CPU      9.69s WALL (    4112 calls)
     cegterg:upda :      4.02s CPU      5.14s WALL (    4112 calls)
     cegterg:last :      4.65s CPU      5.47s WALL (    2726 calls)
     h_psi        :    111.12s CPU    114.72s WALL (    5597 calls)
     g_psi        :      0.28s CPU      0.28s WALL (    4112 calls)

     Called by h_psi:
     h_psi:calbec :      6.59s CPU      7.61s WALL (    5597 calls)
     vloc_psi     :     99.44s CPU    100.63s WALL (    5597 calls)
     add_vuspsi   :      4.68s CPU      5.90s WALL (    5597 calls)

     General routines
     calbec       :      8.15s CPU      9.47s WALL (    6677 calls)
     fft          :      1.35s CPU      1.37s WALL (     745 calls)
     ffts         :      0.06s CPU      0.06s WALL (      53 calls)
     fftw         :    113.88s CPU    115.21s WALL (  172246 calls)

     Parallel routines
     fft_scatt_xy :      9.51s CPU      9.68s WALL (  173044 calls)
     fft_scatt_yz :     10.67s CPU     10.96s WALL (  173044 calls)

     PWSCF        :   3m 6.29s CPU   3m16.16s WALL


   This run was terminated on:  15:45:19  29Apr2026            

=------------------------------------------------------------------------------=
   JOB DONE.
=------------------------------------------------------------------------------=
Note: The following floating-point exceptions are signalling: IEEE_INVALID_FLAG IEEE_DIVIDE_BY_ZERO IEEE_UNDERFLOW_FLAG
