
     Program PWSCF v.6.7MaX starts on 29Apr2026 at 15:38:23 

     This program is part of the open-source Quantum ESPRESSO suite
     for quantum simulation of materials; please cite
         "P. Giannozzi et al., J. Phys.:Condens. Matter 21 395502 (2009);
         "P. Giannozzi et al., J. Phys.:Condens. Matter 29 465901 (2017);
          URL http://www.quantum-espresso.org", 
     in publications or presentations arising from this work. More details at
     http://www.quantum-espresso.org/quote

     Parallel version (MPI & OpenMP), running on       4 processor cores
     Number of MPI processes:                 4
     Threads/MPI process:                     1

     MPI processes distributed on     1 nodes
     R & G space division:  proc/nbgrp/npool/nimage =       4
     Waiting for input...
     Reading input from standard input

     Current dimensions of program PWSCF are:
     Max number of different atomic species (ntypx) = 10
     Max number of k-points (npk) =  40000
     Max angular momentum in pseudopotentials (lmaxx) =  3
     Message from routine read_pp_mesh:
     mesh size missing, using the one in header

     Subspace diagonalization in iterative solution of the eigenvalue problem:
     a serial algorithm will be used


     Parallelization info
     --------------------
     sticks:   dense  smooth     PW     G-vecs:    dense   smooth      PW
     Min         336     336     94                35964    35964    5360
     Max         337     337     95                35973    35973    5367
     Sum        1345    1345    379               143873   143873   21451



     bravais-lattice index     =            4
     lattice parameter (alat)  =       7.7857  a.u.
     unit-cell volume          =    1488.0342 (a.u.)^3
     number of atoms/cell      =            2
     number of atomic types    =            1
     number of electrons       =        30.00
     number of Kohn-Sham states=           20
     kinetic-energy cutoff     =      80.0000  Ry
     charge density cutoff     =     320.0000  Ry
     scf convergence threshold =      1.0E-06
     mixing beta               =       0.7000
     number of iterations used =            8  plain     mixing
     energy convergence thresh.=      1.0E-04
     force convergence thresh. =      1.0E-03
     press convergence thresh. =      1.0E-03
     Exchange-correlation= PBE
                           (   1   4   3   4   0   0   0)
     nstep                     =           50


     celldm(1)=   7.785672  celldm(2)=   0.000000  celldm(3)=   3.640777
     celldm(4)=   0.000000  celldm(5)=   0.000000  celldm(6)=   0.000000

     crystal axes: (cart. coord. in units of alat)
               a(1) = (   1.000000   0.000000   0.000000 )  
               a(2) = (  -0.500000   0.866025   0.000000 )  
               a(3) = (   0.000000   0.000000   3.640777 )  

     reciprocal axes: (cart. coord. in units 2 pi/alat)
               b(1) = (  1.000000  0.577350 -0.000000 )  
               b(2) = (  0.000000  1.154701  0.000000 )  
               b(3) = (  0.000000 -0.000000  0.274667 )  


     PseudoPot. # 1 for Sb read from file:
     /Users/cdhogan/Research/Codes/espresso/PSEUDO/DOJO-PBE-NC-SR-04-STD/Sb.upf
     MD5 check sum: 127f69b6101c45666faeae1b5d611565
     Pseudo is Norm-conserving + core correction, Zval = 15.0
     Generated using ONCVPSP code by D. R. Hamann
     Using radial grid of 1434 points,  6 beta functions with: 
                l(1) =   0
                l(2) =   0
                l(3) =   1
                l(4) =   1
                l(5) =   2
                l(6) =   2

     atomic species   valence    mass     pseudopotential
        Sb            15.00    12.01100     Sb( 1.00)

      6 Sym. Ops. (no inversion) found


                                    s                        frac. trans.

      isym =  1     identity                                     

 cryst.   s( 1) = (     1          0          0      )
                  (     0          1          0      )
                  (     0          0          1      )

 cart.    s( 1) = (  1.0000000  0.0000000  0.0000000 )
                  (  0.0000000  1.0000000  0.0000000 )
                  (  0.0000000  0.0000000  1.0000000 )


      isym =  2     120 deg rotation - cryst. axis [0,0,1]       

 cryst.   s( 2) = (     0          1          0      )
                  (    -1         -1          0      )
                  (     0          0          1      )

 cart.    s( 2) = ( -0.5000000 -0.8660254  0.0000000 )
                  (  0.8660254 -0.5000000  0.0000000 )
                  (  0.0000000  0.0000000  1.0000000 )


      isym =  3     120 deg rotation - cryst. axis [0,0,-1]      

 cryst.   s( 3) = (    -1         -1          0      )
                  (     1          0          0      )
                  (     0          0          1      )

 cart.    s( 3) = ( -0.5000000  0.8660254  0.0000000 )
                  ( -0.8660254 -0.5000000  0.0000000 )
                  (  0.0000000  0.0000000  1.0000000 )


      isym =  4     inv. 180 deg rotation - cart. axis [1,0,0]   

 cryst.   s( 4) = (    -1          0          0      )
                  (     1          1          0      )
                  (     0          0          1      )

 cart.    s( 4) = ( -1.0000000  0.0000000  0.0000000 )
                  (  0.0000000  1.0000000  0.0000000 )
                  (  0.0000000  0.0000000  1.0000000 )


      isym =  5     inv. 180 deg rotation - cryst. axis [0,1,0]  

 cryst.   s( 5) = (     1          1          0      )
                  (     0         -1          0      )
                  (     0          0          1      )

 cart.    s( 5) = (  0.5000000  0.8660254  0.0000000 )
                  (  0.8660254 -0.5000000  0.0000000 )
                  (  0.0000000  0.0000000  1.0000000 )


      isym =  6     inv. 180 deg rotation - cryst. axis [1,1,0]  

 cryst.   s( 6) = (     0         -1          0      )
                  (    -1          0          0      )
                  (     0          0          1      )

 cart.    s( 6) = (  0.5000000 -0.8660254  0.0000000 )
                  ( -0.8660254 -0.5000000  0.0000000 )
                  (  0.0000000  0.0000000  1.0000000 )


     point group C_3v (3m)  
     there are  3 classes
     the character table:

       E     2C3   3s_v 
A_1    1.00  1.00  1.00
A_2    1.00  1.00 -1.00
E      2.00 -1.00  0.00

     the symmetry operations in each class and the name of the first element:

     E        1
          identity                                               
     2C3      2    3
          120 deg rotation - cryst. axis [0,0,1]                 
     3s_v     4    5    6
          inv. 180 deg rotation - cart. axis [1,0,0]             

   Cartesian axes

     site n.     atom                  positions (alat units)
         1           Sb  tau(   1) = (   0.0000000   0.0000000   1.8203883  )
         2           Sb  tau(   2) = (  -0.0000000   0.5773503   2.2157767  )

   Crystallographic axes

     site n.     atom                  positions (cryst. coord.)
         1           Sb  tau(   1) = (  0.0000000  0.0000000  0.5000000  )
         2           Sb  tau(   2) = (  0.3333333  0.6666667  0.6086000  )

     number of k points=    12
                       cart. coord. in units 2pi/alat
        k(    1) = (   0.0000000   0.0000000   0.0000000), wk =   0.0246914
        k(    2) = (   0.0000000   0.1283001   0.0000000), wk =   0.1481481
        k(    3) = (   0.0000000   0.2566001   0.0000000), wk =   0.1481481
        k(    4) = (   0.0000000   0.3849002   0.0000000), wk =   0.1481481
        k(    5) = (   0.0000000   0.5132002   0.0000000), wk =   0.1481481
        k(    6) = (   0.1111111   0.1924501   0.0000000), wk =   0.1481481
        k(    7) = (   0.1111111   0.3207501   0.0000000), wk =   0.2962963
        k(    8) = (   0.1111111   0.4490502   0.0000000), wk =   0.2962963
        k(    9) = (   0.1111111   0.5773503   0.0000000), wk =   0.1481481
        k(   10) = (   0.2222222   0.3849002   0.0000000), wk =   0.1481481
        k(   11) = (   0.2222222   0.5132002   0.0000000), wk =   0.2962963
        k(   12) = (   0.3333333   0.5773503   0.0000000), wk =   0.0493827

                       cryst. coord.
        k(    1) = (   0.0000000   0.0000000   0.0000000), wk =   0.0246914
        k(    2) = (   0.0000000   0.1111111   0.0000000), wk =   0.1481481
        k(    3) = (   0.0000000   0.2222222   0.0000000), wk =   0.1481481
        k(    4) = (   0.0000000   0.3333333   0.0000000), wk =   0.1481481
        k(    5) = (   0.0000000   0.4444444   0.0000000), wk =   0.1481481
        k(    6) = (   0.1111111   0.1111111   0.0000000), wk =   0.1481481
        k(    7) = (   0.1111111   0.2222222   0.0000000), wk =   0.2962963
        k(    8) = (   0.1111111   0.3333333   0.0000000), wk =   0.2962963
        k(    9) = (   0.1111111   0.4444444   0.0000000), wk =   0.1481481
        k(   10) = (   0.2222222   0.2222222   0.0000000), wk =   0.1481481
        k(   11) = (   0.2222222   0.3333333   0.0000000), wk =   0.2962963
        k(   12) = (   0.3333333   0.3333333   0.0000000), wk =   0.0493827

     Dense  grid:   143873 G-vectors     FFT dimensions: (  45,  45, 162)

     Dynamical RAM for                 wfc:       1.37 MB

     Dynamical RAM for     wfc (w. buffer):      17.83 MB

     Dynamical RAM for           str. fact:       0.55 MB

     Dynamical RAM for           local pot:       0.00 MB

     Dynamical RAM for          nlocal pot:       2.47 MB

     Dynamical RAM for                qrad:       2.87 MB

     Dynamical RAM for          rho,v,vnew:       3.55 MB

     Dynamical RAM for               rhoin:       1.18 MB

     Dynamical RAM for            rho*nmix:       8.78 MB

     Dynamical RAM for           G-vectors:       2.33 MB

     Dynamical RAM for          h,s,v(r/c):       0.07 MB

     Dynamical RAM for          <psi|beta>:       0.01 MB

     Dynamical RAM for                 psi:       2.74 MB

     Dynamical RAM for                hpsi:       2.74 MB

     Dynamical RAM for      wfcinit/wfcrot:       2.75 MB

     Estimated static dynamical RAM per process >      43.83 MB

     Estimated max dynamical RAM per process >      49.40 MB

     Estimated total dynamical RAM >     197.60 MB

     Initial potential from superposition of free atoms

     starting charge   29.99888, renormalised to   30.00000

     negative rho (up, down):  7.147E-06 0.000E+00
     Starting wfcs are   18 randomized atomic wfcs +    2 random wfcs

     total cpu time spent up to now is        1.0 secs

     Self-consistent Calculation

     iteration #  1     ecut=    80.00 Ry     beta= 0.70
     Davidson diagonalization with overlap
     ethr =  1.00E-02,  avg # of iterations =  6.0

     Threshold (ethr) on eigenvalues was too large:
     Diagonalizing with lowered threshold

     Davidson diagonalization with overlap
     ethr =  6.13E-05,  avg # of iterations =  7.0

     negative rho (up, down):  1.130E-07 0.000E+00

     total cpu time spent up to now is        4.0 secs

     total energy              =    -363.80479603 Ry
     estimated scf accuracy    <       0.01850529 Ry

     iteration #  2     ecut=    80.00 Ry     beta= 0.70
     Davidson diagonalization with overlap
     ethr =  6.17E-05,  avg # of iterations =  2.6

     total cpu time spent up to now is        5.1 secs

     total energy              =    -363.80610746 Ry
     estimated scf accuracy    <       0.00082305 Ry

     iteration #  3     ecut=    80.00 Ry     beta= 0.70
     Davidson diagonalization with overlap
     c_bands:  1 eigenvalues not converged
     ethr =  2.74E-06,  avg # of iterations =  8.0

     total cpu time spent up to now is        6.9 secs

     total energy              =    -363.80628472 Ry
     estimated scf accuracy    <       0.00003692 Ry

     iteration #  4     ecut=    80.00 Ry     beta= 0.70
     Davidson diagonalization with overlap
     ethr =  1.23E-07,  avg # of iterations =  5.1

     total cpu time spent up to now is        8.2 secs

     total energy              =    -363.80629554 Ry
     estimated scf accuracy    <       0.00000224 Ry

     iteration #  5     ecut=    80.00 Ry     beta= 0.70
     Davidson diagonalization with overlap
     ethr =  7.46E-09,  avg # of iterations =  3.3

     total cpu time spent up to now is        9.6 secs

     total energy              =    -363.80629481 Ry
     estimated scf accuracy    <       0.00001329 Ry

     iteration #  6     ecut=    80.00 Ry     beta= 0.70
     Davidson diagonalization with overlap
     ethr =  7.46E-09,  avg # of iterations =  2.0

     total cpu time spent up to now is       10.7 secs

     End of self-consistent calculation

          k = 0.0000 0.0000 0.0000 ( 17889 PWs)   bands (ev):

   -29.4253 -29.4253 -29.3539 -29.3539 -29.3072 -29.2457 -29.2457 -29.2076
   -29.1630 -29.1630 -12.1191  -7.1148  -1.3996  -0.8528  -0.8528   0.7235
     1.9526   1.9526   3.6243   3.6315

     occupation numbers 
     1.0000   1.0000   1.0000   1.0000   1.0000   1.0000   1.0000   1.0000
     1.0000   1.0000   1.0000   1.0000   1.0000   1.0000   1.0000   0.0000
     0.0000   0.0000   0.0000   0.0000

          k = 0.0000 0.1283 0.0000 ( 17911 PWs)   bands (ev):

   -29.4245 -29.4190 -29.3530 -29.3500 -29.3056 -29.2485 -29.2459 -29.2094
   -29.1702 -29.1634 -11.9881  -7.1167  -1.9335  -1.3483  -1.1341   1.2331
     2.0032   2.2210   3.7677   3.8098

     occupation numbers 
     1.0000   1.0000   1.0000   1.0000   1.0000   1.0000   1.0000   1.0000
     1.0000   1.0000   1.0000   1.0000   1.0000   1.0000   1.0000   0.0000
     0.0000   0.0000   0.0000   0.0000

          k = 0.0000 0.2566 0.0000 ( 17947 PWs)   bands (ev):

   -29.4224 -29.4014 -29.3506 -29.3389 -29.3003 -29.2566 -29.2470 -29.2150
   -29.1895 -29.1644 -11.6033  -7.2335  -3.2160  -1.6666  -1.3134   0.6407
     2.6083   2.6602   4.0620   4.2533

     occupation numbers 
     1.0000   1.0000   1.0000   1.0000   1.0000   1.0000   1.0000   1.0000
     1.0000   1.0000   1.0000   1.0000   1.0000   1.0000   1.0000   0.0000
     0.0000   0.0000   0.0000   0.0000

          k = 0.0000 0.3849 0.0000 ( 17991 PWs)   bands (ev):

   -29.4200 -29.3784 -29.3447 -29.3228 -29.2918 -29.2694 -29.2510 -29.2300
   -29.2088 -29.1656 -11.0017  -7.7268  -3.8238  -2.1190  -1.6425   0.4628
     2.2556   2.7424   4.5866   4.7054

     occupation numbers 
     1.0000   1.0000   1.0000   1.0000   1.0000   1.0000   1.0000   1.0000
     1.0000   1.0000   1.0000   1.0000   1.0000   1.0000   1.0000   0.0000
     0.0000   0.0000   0.0000   0.0000

          k = 0.0000 0.5132 0.0000 ( 18004 PWs)   bands (ev):

   -29.4183 -29.3654 -29.3274 -29.3043 -29.2874 -29.2858 -29.2578 -29.2521
   -29.2150 -29.1665 -10.3444  -8.4560  -3.7974  -2.3655  -2.1710   0.7269
     1.7392   2.7332   4.3536   5.6300

     occupation numbers 
     1.0000   1.0000   1.0000   1.0000   1.0000   1.0000   1.0000   1.0000
     1.0000   1.0000   1.0000   1.0000   1.0000   1.0000   1.0000   0.0000
     0.0000   0.0000   0.0000   0.0000

          k = 0.1111 0.1925 0.0000 ( 17959 PWs)   bands (ev):

   -29.4232 -29.4069 -29.3509 -29.3432 -29.3020 -29.2544 -29.2460 -29.2130
   -29.1835 -29.1642 -11.7298  -7.1735  -2.8287  -1.7925  -1.2809   1.4123
     1.8093   2.8488   4.0303   4.0855

     occupation numbers 
     1.0000   1.0000   1.0000   1.0000   1.0000   1.0000   1.0000   1.0000
     1.0000   1.0000   1.0000   1.0000   1.0000   1.0000   1.0000   0.0000
     0.0000   0.0000   0.0000   0.0000

          k = 0.1111 0.3208 0.0000 ( 17972 PWs)   bands (ev):

   -29.4210 -29.3852 -29.3468 -29.3313 -29.2941 -29.2659 -29.2471 -29.2226
   -29.2040 -29.1656 -11.2319  -7.4816  -3.5636  -2.5181  -1.3663   1.0357
     2.2143   2.7609   4.4211   4.5903

     occupation numbers 
     1.0000   1.0000   1.0000   1.0000   1.0000   1.0000   1.0000   1.0000
     1.0000   1.0000   1.0000   1.0000   1.0000   1.0000   1.0000   0.0000
     0.0000   0.0000   0.0000   0.0000

          k = 0.1111 0.4491 0.0000 ( 17997 PWs)   bands (ev):

   -29.4190 -29.3644 -29.3362 -29.3155 -29.2856 -29.2810 -29.2514 -29.2449
   -29.2156 -29.1670 -10.5640  -8.1563  -3.7993  -2.8413  -1.8347   1.0807
     2.0297   2.4932   4.6944   5.2718

     occupation numbers 
     1.0000   1.0000   1.0000   1.0000   1.0000   1.0000   1.0000   1.0000
     1.0000   1.0000   1.0000   1.0000   1.0000   1.0000   1.0000   0.0000
     0.0000   0.0000   0.0000   0.0000

          k = 0.1111 0.5774 0.0000 ( 17987 PWs)   bands (ev):

   -29.4182 -29.3587 -29.3193 -29.3024 -29.2977 -29.2834 -29.2607 -29.2531
   -29.2184 -29.1675 -10.1001  -8.6672  -3.8106  -2.7603  -2.2664   1.4807
     1.5076   2.5136   4.4538   6.3204

     occupation numbers 
     1.0000   1.0000   1.0000   1.0000   1.0000   1.0000   1.0000   1.0000
     1.0000   1.0000   1.0000   1.0000   1.0000   1.0000   1.0000   0.0000
     0.0000   0.0000   0.0000   0.0000

          k = 0.2222 0.3849 0.0000 ( 18009 PWs)   bands (ev):

   -29.4195 -29.3615 -29.3403 -29.3215 -29.2838 -29.2816 -29.2459 -29.2419
   -29.2171 -29.1676 -10.6481  -8.0093  -3.5167  -3.4761  -1.6465   1.4875
     1.6761   3.0094   4.9584   5.2053

     occupation numbers 
     1.0000   1.0000   1.0000   1.0000   1.0000   1.0000   1.0000   1.0000
     1.0000   1.0000   1.0000   1.0000   1.0000   1.0000   1.0000   0.0000
     0.0000   0.0000   0.0000   0.0000

          k = 0.2222 0.5132 0.0000 ( 18011 PWs)   bands (ev):

   -29.4185 -29.3451 -29.3261 -29.3074 -29.3008 -29.2764 -29.2660 -29.2449
   -29.2247 -29.1691  -9.9722  -8.6959  -4.0613  -3.0566  -2.1653   1.0309
     2.2487   2.8121   5.1946   6.0812

     occupation numbers 
     1.0000   1.0000   1.0000   1.0000   1.0000   1.0000   1.0000   1.0000
     1.0000   1.0000   1.0000   1.0000   1.0000   1.0000   1.0000   0.0000
     0.0000   0.0000   0.0000   0.0000

          k = 0.3333 0.5774 0.0000 ( 18045 PWs)   bands (ev):

   -29.4182 -29.3240 -29.3233 -29.3225 -29.2890 -29.2885 -29.2720 -29.2356
   -29.2352 -29.1702  -9.3170  -9.3166  -4.3453  -2.6077  -2.6076   0.7033
     2.7747   2.7748   5.8214   6.4853

     occupation numbers 
     1.0000   1.0000   1.0000   1.0000   1.0000   1.0000   1.0000   1.0000
     1.0000   1.0000   1.0000   1.0000   1.0000   1.0000   1.0000   0.0000
     0.0000   0.0000   0.0000   0.0000

     highest occupied, lowest unoccupied level (ev):    -0.8528    0.4628

!    total energy              =    -363.80629648 Ry
     estimated scf accuracy    <       0.00000010 Ry

     The total energy is the sum of the following terms:
     one-electron contribution =    -771.91022260 Ry
     hartree contribution      =     390.17677401 Ry
     xc contribution           =     -90.87849607 Ry
     ewald contribution        =     108.80564817 Ry

     convergence has been achieved in   6 iterations

     Forces acting on atoms (cartesian axes, Ry/au):

     atom    1 type  1   force =     0.00000000    0.00000000   -0.00319788
     atom    2 type  1   force =     0.00000000    0.00000000    0.00319788
     The non-local contrib.  to forces
     atom    1 type  1   force =     0.00000000    0.00000000    0.61374819
     atom    2 type  1   force =     0.00000000    0.00000000   -0.61205937
     The ionic contribution  to forces
     atom    1 type  1   force =    -0.00000001    0.00000001  -34.61306769
     atom    2 type  1   force =     0.00000001   -0.00000001   34.61306769
     The local contribution  to forces
     atom    1 type  1   force =    -0.00000000   -0.00000000   34.00092051
     atom    2 type  1   force =     0.00000044   -0.00000025  -34.00242211
     The core correction contribution to forces
     atom    1 type  1   force =    -0.00000000    0.00000000   -0.00411648
     atom    2 type  1   force =     0.00000002   -0.00000001    0.00410815
     The Hubbard contrib.    to forces
     atom    1 type  1   force =     0.00000000    0.00000000    0.00000000
     atom    2 type  1   force =     0.00000000    0.00000000    0.00000000
     The SCF correction term to forces
     atom    1 type  1   force =     0.00000000   -0.00000000    0.00000000
     atom    2 type  1   force =    -0.00000000    0.00000000    0.00145095

     Total force =     0.003198     Total SCF correction =     0.001451
     SCF correction compared to forces is large: reduce conv_thr to get better values


     Computing stress (Cartesian axis) and pressure

          total   stress  (Ry/bohr**3)                   (kbar)     P=        0.52
   0.00000331   0.00000000   0.00000000            0.49        0.00        0.00
   0.00000000   0.00000331   0.00000000            0.00        0.49        0.00
   0.00000000   0.00000000   0.00000400            0.00        0.00        0.59

     kinetic stress (kbar)  14012.53     -0.00      0.00
                               -0.00  14012.53      0.00
                                0.00      0.00  14045.58

     local   stress (kbar) -62777.90      0.00     -0.00
                                0.00 -62777.90      0.00
                               -0.00      0.00  57894.94

     nonloc. stress (kbar)  -6050.31      0.00      0.00
                                0.00  -6050.31      0.00
                                0.00      0.00  -6034.19

     hartree stress (kbar)  32306.68      0.00     -0.00
                                0.00  32306.68     -0.00
                               -0.00     -0.00 -26041.00

     exc-cor stress (kbar)   3406.89     -0.00      0.00
                               -0.00   3406.89     -0.00
                                0.00     -0.00   3405.65

     corecor stress (kbar)  -5273.72     -0.00      0.00
                               -0.00  -5273.72     -0.00
                                0.00     -0.00  -5274.12

     ewald   stress (kbar)  24376.32     -0.00      0.00
                               -0.00  24376.32     -0.00
                                0.00     -0.00 -37996.26

     hubbard stress (kbar)      0.00      0.00      0.00
                                0.00      0.00      0.00
                                0.00      0.00      0.00

     DFT-D   stress (kbar)      0.00      0.00      0.00
                                0.00      0.00      0.00
                                0.00      0.00      0.00

     XDM     stress (kbar)      0.00      0.00      0.00
                                0.00      0.00      0.00
                                0.00      0.00      0.00

     dft-nl  stress (kbar)      0.00      0.00      0.00
                                0.00      0.00      0.00
                                0.00      0.00      0.00

     TS-vdW  stress (kbar)      0.00      0.00      0.00
                                0.00      0.00      0.00
                                0.00      0.00      0.00



     BFGS Geometry Optimization
     Energy error            =      0.0E+00
     Gradient error          =      3.2E-03
     Cell gradient error     =      3.3E-06


     number of scf cycles    =   1
     number of bfgs steps    =   0

     enthalpy new            =    -363.8062964823 Ry

     new trust radius        =       0.0031978779 bohr
     new conv_thr            =       0.0000010000 Ry

     new unit-cell volume =   1488.28088 a.u.^3 (   220.54047 Ang^3 )
     density =      0.18087 g/cm^3

CELL_PARAMETERS (alat=  7.78567163)
   1.000082871   0.000000000   0.000000000
  -0.500041436   0.866097173   0.000000000
   0.000000000   0.000000000   3.640776699

ATOMIC_POSITIONS (crystal)
Sb            0.0000000000        0.0000000000        0.5000000000    0   0   0
Sb            0.3333333330        0.6666666670        0.6087128163



     Writing output data file ./tmp/Sb.save/
     NEW-OLD atomic charge density approx. for the potential
     extrapolated charge   30.00497, renormalised to   30.00000

     total cpu time spent up to now is       13.2 secs

     Self-consistent Calculation

     iteration #  1     ecut=    80.00 Ry     beta= 0.70
     Davidson diagonalization with overlap
     ethr =  1.00E-06,  avg # of iterations =  4.0

     Threshold (ethr) on eigenvalues was too large:
     Diagonalizing with lowered threshold

     Davidson diagonalization with overlap
     ethr =  2.83E-08,  avg # of iterations =  2.0

     total cpu time spent up to now is       16.0 secs

     total energy              =    -363.80629151 Ry
     estimated scf accuracy    <       0.00001001 Ry

     iteration #  2     ecut=    80.00 Ry     beta= 0.70
     Davidson diagonalization with overlap
     ethr =  3.34E-08,  avg # of iterations =  3.2

     total cpu time spent up to now is       17.5 secs

     total energy              =    -363.80630264 Ry
     estimated scf accuracy    <       0.00004298 Ry

     iteration #  3     ecut=    80.00 Ry     beta= 0.70
     Davidson diagonalization with overlap
     ethr =  3.34E-08,  avg # of iterations =  2.0

     total cpu time spent up to now is       18.7 secs

     total energy              =    -363.80630691 Ry
     estimated scf accuracy    <       0.00001132 Ry

     iteration #  4     ecut=    80.00 Ry     beta= 0.70
     Davidson diagonalization with overlap
     ethr =  3.34E-08,  avg # of iterations =  1.2

     total cpu time spent up to now is       19.7 secs

     total energy              =    -363.80630695 Ry
     estimated scf accuracy    <       0.00000284 Ry

     iteration #  5     ecut=    80.00 Ry     beta= 0.70
     Davidson diagonalization with overlap
     ethr =  9.46E-09,  avg # of iterations =  1.9

     total cpu time spent up to now is       20.9 secs

     total energy              =    -363.80630661 Ry
     estimated scf accuracy    <       0.00000110 Ry

     iteration #  6     ecut=    80.00 Ry     beta= 0.70
     Davidson diagonalization with overlap
     ethr =  3.65E-09,  avg # of iterations =  2.0

     total cpu time spent up to now is       22.0 secs

     End of self-consistent calculation

          k = 0.0000 0.0000 0.0000 ( 17889 PWs)   bands (ev):

   -29.4272 -29.4272 -29.3562 -29.3562 -29.3096 -29.2484 -29.2484 -29.2103
   -29.1659 -29.1659 -12.1147  -7.1190  -1.4031  -0.8500  -0.8500   0.7247
     1.9515   1.9515   3.6237   3.6300

     occupation numbers 
     1.0000   1.0000   1.0000   1.0000   1.0000   1.0000   1.0000   1.0000
     1.0000   1.0000   1.0000   1.0000   1.0000   1.0000   1.0000   0.0000
     0.0000   0.0000   0.0000   0.0000

          k = 0.0000 0.1283 0.0000 ( 17911 PWs)   bands (ev):

   -29.4264 -29.4209 -29.3553 -29.3522 -29.3079 -29.2512 -29.2486 -29.2120
   -29.1731 -29.1662 -11.9837  -7.1207  -1.9303  -1.3518  -1.1312   1.2329
     2.0019   2.2191   3.7665   3.8091

     occupation numbers 
     1.0000   1.0000   1.0000   1.0000   1.0000   1.0000   1.0000   1.0000
     1.0000   1.0000   1.0000   1.0000   1.0000   1.0000   1.0000   0.0000
     0.0000   0.0000   0.0000   0.0000

          k = 0.0000 0.2566 0.0000 ( 17947 PWs)   bands (ev):

   -29.4244 -29.4034 -29.3529 -29.3412 -29.3026 -29.2593 -29.2497 -29.2176
   -29.1923 -29.1673 -11.5992  -7.2368  -3.2129  -1.6634  -1.3167   0.6397
     2.6048   2.6576   4.0610   4.2519

     occupation numbers 
     1.0000   1.0000   1.0000   1.0000   1.0000   1.0000   1.0000   1.0000
     1.0000   1.0000   1.0000   1.0000   1.0000   1.0000   1.0000   0.0000
     0.0000   0.0000   0.0000   0.0000

          k = 0.0000 0.3849 0.0000 ( 17991 PWs)   bands (ev):

   -29.4219 -29.3805 -29.3470 -29.3252 -29.2942 -29.2720 -29.2537 -29.2325
   -29.2116 -29.1685 -10.9980  -7.7280  -3.8223  -2.1156  -1.6450   0.4615
     2.2531   2.7378   4.5841   4.7039

     occupation numbers 
     1.0000   1.0000   1.0000   1.0000   1.0000   1.0000   1.0000   1.0000
     1.0000   1.0000   1.0000   1.0000   1.0000   1.0000   1.0000   0.0000
     0.0000   0.0000   0.0000   0.0000

          k = 0.0000 0.5132 0.0000 ( 18004 PWs)   bands (ev):

   -29.4202 -29.3677 -29.3296 -29.3068 -29.2899 -29.2883 -29.2604 -29.2546
   -29.2178 -29.1693 -10.3413  -8.4551  -3.7975  -2.3619  -2.1730   0.7270
     1.7350   2.7282   4.3511   5.6278

     occupation numbers 
     1.0000   1.0000   1.0000   1.0000   1.0000   1.0000   1.0000   1.0000
     1.0000   1.0000   1.0000   1.0000   1.0000   1.0000   1.0000   0.0000
     0.0000   0.0000   0.0000   0.0000

          k = 0.1111 0.1924 0.0000 ( 17959 PWs)   bands (ev):

   -29.4251 -29.4089 -29.3531 -29.3455 -29.3043 -29.2571 -29.2487 -29.2157
   -29.1863 -29.1671 -11.7256  -7.1771  -2.8254  -1.7897  -1.2840   1.4102
     1.8085   2.8453   4.0291   4.0850

     occupation numbers 
     1.0000   1.0000   1.0000   1.0000   1.0000   1.0000   1.0000   1.0000
     1.0000   1.0000   1.0000   1.0000   1.0000   1.0000   1.0000   0.0000
     0.0000   0.0000   0.0000   0.0000

          k = 0.1111 0.3207 0.0000 ( 17972 PWs)   bands (ev):

   -29.4230 -29.3873 -29.3491 -29.3336 -29.2965 -29.2685 -29.2498 -29.2252
   -29.2068 -29.1685 -11.2281  -7.4837  -3.5613  -2.5150  -1.3690   1.0335
     2.2108   2.7582   4.4200   4.5891

     occupation numbers 
     1.0000   1.0000   1.0000   1.0000   1.0000   1.0000   1.0000   1.0000
     1.0000   1.0000   1.0000   1.0000   1.0000   1.0000   1.0000   0.0000
     0.0000   0.0000   0.0000   0.0000

          k = 0.1111 0.4490 0.0000 ( 17997 PWs)   bands (ev):

   -29.4210 -29.3666 -29.3385 -29.3179 -29.2881 -29.2836 -29.2540 -29.2474
   -29.2184 -29.1698 -10.5607  -8.1562  -3.7983  -2.8385  -1.8366   1.0781
     2.0267   2.4894   4.6920   5.2698

     occupation numbers 
     1.0000   1.0000   1.0000   1.0000   1.0000   1.0000   1.0000   1.0000
     1.0000   1.0000   1.0000   1.0000   1.0000   1.0000   1.0000   0.0000
     0.0000   0.0000   0.0000   0.0000

          k = 0.1111 0.5773 0.0000 ( 17987 PWs)   bands (ev):

   -29.4202 -29.3610 -29.3215 -29.3049 -29.3001 -29.2860 -29.2630 -29.2557
   -29.2212 -29.1704 -10.0972  -8.6659  -3.8100  -2.7577  -2.2682   1.4761
     1.5073   2.5084   4.4521   6.3179

     occupation numbers 
     1.0000   1.0000   1.0000   1.0000   1.0000   1.0000   1.0000   1.0000
     1.0000   1.0000   1.0000   1.0000   1.0000   1.0000   1.0000   0.0000
     0.0000   0.0000   0.0000   0.0000

          k = 0.2222 0.3849 0.0000 ( 18009 PWs)   bands (ev):

   -29.4215 -29.3637 -29.3427 -29.3238 -29.2863 -29.2842 -29.2486 -29.2444
   -29.2198 -29.1705 -10.6447  -8.0097  -3.5133  -3.4752  -1.6487   1.4837
     1.6720   3.0060   4.9592   5.2037

     occupation numbers 
     1.0000   1.0000   1.0000   1.0000   1.0000   1.0000   1.0000   1.0000
     1.0000   1.0000   1.0000   1.0000   1.0000   1.0000   1.0000   0.0000
     0.0000   0.0000   0.0000   0.0000

          k = 0.2222 0.5132 0.0000 ( 18011 PWs)   bands (ev):

   -29.4204 -29.3474 -29.3285 -29.3097 -29.3033 -29.2790 -29.2684 -29.2476
   -29.2274 -29.1719  -9.9694  -8.6948  -4.0580  -3.0565  -2.1669   1.0271
     2.2440   2.8078   5.1948   6.0792

     occupation numbers 
     1.0000   1.0000   1.0000   1.0000   1.0000   1.0000   1.0000   1.0000
     1.0000   1.0000   1.0000   1.0000   1.0000   1.0000   1.0000   0.0000
     0.0000   0.0000   0.0000   0.0000

          k = 0.3333 0.5773 0.0000 ( 18045 PWs)   bands (ev):

   -29.4202 -29.3261 -29.3260 -29.3249 -29.2910 -29.2910 -29.2746 -29.2381
   -29.2381 -29.1730  -9.3148  -9.3148  -4.3414  -2.6087  -2.6087   0.6997
     2.7691   2.7691   5.8197   6.4856

     occupation numbers 
     1.0000   1.0000   1.0000   1.0000   1.0000   1.0000   1.0000   1.0000
     1.0000   1.0000   1.0000   1.0000   1.0000   1.0000   1.0000   0.0000
     0.0000   0.0000   0.0000   0.0000

     highest occupied, lowest unoccupied level (ev):    -0.8500    0.4615

!    total energy              =    -363.80630658 Ry
     estimated scf accuracy    <       0.00000015 Ry

     The total energy is the sum of the following terms:
     one-electron contribution =    -771.61671275 Ry
     hartree contribution      =     390.03463060 Ry
     xc contribution           =     -90.87833308 Ry
     ewald contribution        =     108.65410865 Ry

     convergence has been achieved in   6 iterations

     Forces acting on atoms (cartesian axes, Ry/au):

     atom    1 type  1   force =     0.00000000    0.00000000   -0.00230996
     atom    2 type  1   force =     0.00000000    0.00000000    0.00230996
     The non-local contrib.  to forces
     atom    1 type  1   force =     0.00000000    0.00000000    0.61314312
     atom    2 type  1   force =     0.00000000   -0.00000000   -0.61234838
     The ionic contribution  to forces
     atom    1 type  1   force =    -0.00000001    0.00000001  -34.61317142
     atom    2 type  1   force =     0.00000001   -0.00000001   34.61317142
     The local contribution  to forces
     atom    1 type  1   force =     0.00000000   -0.00000000   34.00347148
     atom    2 type  1   force =     0.00000044   -0.00000025  -34.00424020
     The core correction contribution to forces
     atom    1 type  1   force =    -0.00000000   -0.00000000   -0.00417878
     atom    2 type  1   force =     0.00000002   -0.00000001    0.00412722
     The Hubbard contrib.    to forces
     atom    1 type  1   force =     0.00000000    0.00000000    0.00000000
     atom    2 type  1   force =     0.00000000    0.00000000    0.00000000
     The SCF correction term to forces
     atom    1 type  1   force =    -0.00000000    0.00000000   -0.00000000
     atom    2 type  1   force =    -0.00000000    0.00000000    0.00190456

     Total force =     0.002310     Total SCF correction =     0.001905
     SCF correction compared to forces is large: reduce conv_thr to get better values


     Computing stress (Cartesian axis) and pressure

          total   stress  (Ry/bohr**3)                   (kbar)     P=        0.70
   0.00000445  -0.00000000   0.00000000            0.66       -0.00        0.00
  -0.00000000   0.00000445   0.00000000           -0.00        0.66        0.00
   0.00000000   0.00000000   0.00000545            0.00        0.00        0.80

     kinetic stress (kbar)  14010.48      0.00      0.00
                                0.00  14010.48      0.00
                                0.00      0.00  14043.32

     local   stress (kbar) -62732.45      0.00     -0.00
                                0.00 -62732.45      0.00
                               -0.00      0.00  57844.69

     nonloc. stress (kbar)  -6049.46      0.00      0.00
                                0.00  -6049.46      0.00
                                0.00      0.00  -6033.40

     hartree stress (kbar)  32285.16     -0.00     -0.00
                               -0.00  32285.16     -0.00
                               -0.00     -0.00 -26018.41

     exc-cor stress (kbar)   3406.34     -0.00      0.00
                               -0.00   3406.34     -0.00
                                0.00     -0.00   3405.11

     corecor stress (kbar)  -5272.86     -0.00      0.00
                               -0.00  -5272.86     -0.00
                                0.00     -0.00  -5273.26

     ewald   stress (kbar)  24353.44     -0.00      0.00
                               -0.00  24353.44     -0.00
                                0.00     -0.00 -37967.25

     hubbard stress (kbar)      0.00      0.00      0.00
                                0.00      0.00      0.00
                                0.00      0.00      0.00

     DFT-D   stress (kbar)      0.00      0.00      0.00
                                0.00      0.00      0.00
                                0.00      0.00      0.00

     XDM     stress (kbar)      0.00      0.00      0.00
                                0.00      0.00      0.00
                                0.00      0.00      0.00

     dft-nl  stress (kbar)      0.00      0.00      0.00
                                0.00      0.00      0.00
                                0.00      0.00      0.00

     TS-vdW  stress (kbar)      0.00      0.00      0.00
                                0.00      0.00      0.00
                                0.00      0.00      0.00


     Energy error            =      1.0E-05
     Gradient error          =      2.3E-03
     Cell gradient error     =      4.5E-06


     number of scf cycles    =   2
     number of bfgs steps    =   1

     enthalpy old            =    -363.8062964823 Ry
     enthalpy new            =    -363.8063065789 Ry

     CASE: enthalpy_new < enthalpy_old

     new trust radius        =       0.0035176657 bohr
     new conv_thr            =       0.0000000100 Ry

     new unit-cell volume =   1488.75381 a.u.^3 (   220.61055 Ang^3 )
     density =      0.18081 g/cm^3

CELL_PARAMETERS (alat=  7.78567163)
   1.000241757  -0.000000000   0.000000000
  -0.500120879   0.866234772   0.000000000
   0.000000000   0.000000000   3.640776699

ATOMIC_POSITIONS (crystal)
Sb            0.0000000000        0.0000000000        0.5000000000    0   0   0
Sb            0.3333333330        0.6666666670        0.6088369142



     Writing output data file ./tmp/Sb.save/
     NEW-OLD atomic charge density approx. for the potential
     extrapolated charge   30.00953, renormalised to   30.00000

     total cpu time spent up to now is       24.6 secs

     Self-consistent Calculation

     iteration #  1     ecut=    80.00 Ry     beta= 0.70
     Davidson diagonalization with overlap
     ethr =  1.00E-06,  avg # of iterations =  4.4

     total cpu time spent up to now is       26.5 secs

     total energy              =    -363.80626177 Ry
     estimated scf accuracy    <       0.00003509 Ry

     iteration #  2     ecut=    80.00 Ry     beta= 0.70
     Davidson diagonalization with overlap
     ethr =  1.17E-07,  avg # of iterations =  4.5

     total cpu time spent up to now is       28.3 secs

     total energy              =    -363.80631371 Ry
     estimated scf accuracy    <       0.00007750 Ry

     iteration #  3     ecut=    80.00 Ry     beta= 0.70
     Davidson diagonalization with overlap
     ethr =  1.17E-07,  avg # of iterations =  2.0

     total cpu time spent up to now is       29.5 secs

     total energy              =    -363.80631715 Ry
     estimated scf accuracy    <       0.00001181 Ry

     iteration #  4     ecut=    80.00 Ry     beta= 0.70
     Davidson diagonalization with overlap
     ethr =  3.94E-08,  avg # of iterations =  1.0

     total cpu time spent up to now is       30.5 secs

     total energy              =    -363.80631691 Ry
     estimated scf accuracy    <       0.00000557 Ry

     iteration #  5     ecut=    80.00 Ry     beta= 0.70
     Davidson diagonalization with overlap
     ethr =  1.86E-08,  avg # of iterations =  1.2

     total cpu time spent up to now is       31.6 secs

     total energy              =    -363.80631584 Ry
     estimated scf accuracy    <       0.00000361 Ry

     iteration #  6     ecut=    80.00 Ry     beta= 0.70
     Davidson diagonalization with overlap
     ethr =  1.20E-08,  avg # of iterations =  2.0

     total cpu time spent up to now is       32.8 secs

     total energy              =    -363.80631568 Ry
     estimated scf accuracy    <       0.00000092 Ry

     iteration #  7     ecut=    80.00 Ry     beta= 0.70
     Davidson diagonalization with overlap
     ethr =  3.06E-09,  avg # of iterations =  2.1

     total cpu time spent up to now is       34.0 secs

     total energy              =    -363.80631574 Ry
     estimated scf accuracy    <       0.00000009 Ry

     iteration #  8     ecut=    80.00 Ry     beta= 0.70
     Davidson diagonalization with overlap
     ethr =  3.00E-10,  avg # of iterations =  3.8

     total cpu time spent up to now is       35.4 secs

     End of self-consistent calculation

          k = 0.0000 0.0000 0.0000 ( 17889 PWs)   bands (ev):

   -29.4228 -29.4228 -29.3521 -29.3521 -29.3058 -29.2449 -29.2449 -29.2069
   -29.1626 -29.1626 -12.1052  -7.1207  -1.4048  -0.8438  -0.8438   0.7283
     1.9530   1.9530   3.6231   3.6278

     occupation numbers 
     1.0000   1.0000   1.0000   1.0000   1.0000   1.0000   1.0000   1.0000
     1.0000   1.0000   1.0000   1.0000   1.0000   1.0000   1.0000   0.0000
     0.0000   0.0000   0.0000   0.0000

          k = 0.0000 0.1283 0.0000 ( 17911 PWs)   bands (ev):

   -29.4220 -29.4166 -29.3513 -29.3482 -29.3042 -29.2477 -29.2451 -29.2087
   -29.1698 -29.1630 -11.9743  -7.1222  -1.9235  -1.3534  -1.1247   1.2353
     2.0027   2.2196   3.7648   3.8084

     occupation numbers 
     1.0000   1.0000   1.0000   1.0000   1.0000   1.0000   1.0000   1.0000
     1.0000   1.0000   1.0000   1.0000   1.0000   1.0000   1.0000   0.0000
     0.0000   0.0000   0.0000   0.0000

          k = 0.0000 0.2565 0.0000 ( 17947 PWs)   bands (ev):

   -29.4200 -29.3991 -29.3488 -29.3373 -29.2989 -29.2557 -29.2463 -29.2142
   -29.1890 -29.1640 -11.5901  -7.2374  -3.2060  -1.6565  -1.3180   0.6412
     2.6034   2.6567   4.0599   4.2500

     occupation numbers 
     1.0000   1.0000   1.0000   1.0000   1.0000   1.0000   1.0000   1.0000
     1.0000   1.0000   1.0000   1.0000   1.0000   1.0000   1.0000   0.0000
     0.0000   0.0000   0.0000   0.0000

          k = 0.0000 0.3848 0.0000 ( 17991 PWs)   bands (ev):

   -29.4175 -29.3763 -29.3430 -29.3213 -29.2905 -29.2684 -29.2502 -29.2289
   -29.2083 -29.1652 -10.9896  -7.7259  -3.8173  -2.1083  -1.6453   0.4626
     2.2525   2.7350   4.5819   4.7019

     occupation numbers 
     1.0000   1.0000   1.0000   1.0000   1.0000   1.0000   1.0000   1.0000
     1.0000   1.0000   1.0000   1.0000   1.0000   1.0000   1.0000   0.0000
     0.0000   0.0000   0.0000   0.0000

          k = 0.0000 0.5131 0.0000 ( 18004 PWs)   bands (ev):

   -29.4159 -29.3635 -29.3257 -29.3030 -29.2862 -29.2846 -29.2568 -29.2509
   -29.2145 -29.1661 -10.3337  -8.4505  -3.7945  -2.3545  -2.1725   0.7296
     1.7323   2.7250   4.3497   5.6252

     occupation numbers 
     1.0000   1.0000   1.0000   1.0000   1.0000   1.0000   1.0000   1.0000
     1.0000   1.0000   1.0000   1.0000   1.0000   1.0000   1.0000   0.0000
     0.0000   0.0000   0.0000   0.0000

          k = 0.1111 0.1924 0.0000 ( 17959 PWs)   bands (ev):

   -29.4207 -29.4045 -29.3491 -29.3415 -29.3006 -29.2535 -29.2452 -29.2122
   -29.1830 -29.1638 -11.7164  -7.1781  -2.8183  -1.7831  -1.2853   1.4103
     1.8100   2.8435   4.0275   4.0847

     occupation numbers 
     1.0000   1.0000   1.0000   1.0000   1.0000   1.0000   1.0000   1.0000
     1.0000   1.0000   1.0000   1.0000   1.0000   1.0000   1.0000   0.0000
     0.0000   0.0000   0.0000   0.0000

          k = 0.1111 0.3207 0.0000 ( 17972 PWs)   bands (ev):

   -29.4186 -29.3831 -29.3451 -29.3297 -29.2928 -29.2649 -29.2463 -29.2216
   -29.2035 -29.1652 -11.2194  -7.4829  -3.5553  -2.5081  -1.3696   1.0333
     2.2093   2.7573   4.4191   4.5875

     occupation numbers 
     1.0000   1.0000   1.0000   1.0000   1.0000   1.0000   1.0000   1.0000
     1.0000   1.0000   1.0000   1.0000   1.0000   1.0000   1.0000   0.0000
     0.0000   0.0000   0.0000   0.0000

          k = 0.1111 0.4489 0.0000 ( 17997 PWs)   bands (ev):

   -29.4166 -29.3625 -29.3345 -29.3140 -29.2844 -29.2799 -29.2505 -29.2437
   -29.2151 -29.1666 -10.5528  -8.1526  -3.7941  -2.8318  -1.8361   1.0776
     2.0257   2.4874   4.6907   5.2675

     occupation numbers 
     1.0000   1.0000   1.0000   1.0000   1.0000   1.0000   1.0000   1.0000
     1.0000   1.0000   1.0000   1.0000   1.0000   1.0000   1.0000   0.0000
     0.0000   0.0000   0.0000   0.0000

          k = 0.1111 0.5772 0.0000 ( 17987 PWs)   bands (ev):

   -29.4158 -29.3569 -29.3176 -29.3011 -29.2964 -29.2823 -29.2593 -29.2522
   -29.2179 -29.1671 -10.0900  -8.6608  -3.8060  -2.7514  -2.2674   1.4733
     1.5095   2.5048   4.4515   6.3149

     occupation numbers 
     1.0000   1.0000   1.0000   1.0000   1.0000   1.0000   1.0000   1.0000
     1.0000   1.0000   1.0000   1.0000   1.0000   1.0000   1.0000   0.0000
     0.0000   0.0000   0.0000   0.0000

          k = 0.2222 0.3848 0.0000 ( 18009 PWs)   bands (ev):

   -29.4171 -29.3596 -29.3387 -29.3199 -29.2825 -29.2805 -29.2451 -29.2407
   -29.2165 -29.1672 -10.6367  -8.0066  -3.5058  -3.4709  -1.6485   1.4820
     1.6695   3.0044   4.9615   5.2016

     occupation numbers 
     1.0000   1.0000   1.0000   1.0000   1.0000   1.0000   1.0000   1.0000
     1.0000   1.0000   1.0000   1.0000   1.0000   1.0000   1.0000   0.0000
     0.0000   0.0000   0.0000   0.0000

          k = 0.2222 0.5131 0.0000 ( 18011 PWs)   bands (ev):

   -29.4160 -29.3434 -29.3246 -29.3059 -29.2995 -29.2753 -29.2646 -29.2441
   -29.2241 -29.1687  -9.9623  -8.6898  -4.0506  -3.0534  -2.1660   1.0253
     2.2406   2.8051   5.1966   6.0771

     occupation numbers 
     1.0000   1.0000   1.0000   1.0000   1.0000   1.0000   1.0000   1.0000
     1.0000   1.0000   1.0000   1.0000   1.0000   1.0000   1.0000   0.0000
     0.0000   0.0000   0.0000   0.0000

          k = 0.3333 0.5772 0.0000 ( 18045 PWs)   bands (ev):

   -29.4158 -29.3222 -29.3222 -29.3210 -29.2872 -29.2872 -29.2709 -29.2347
   -29.2347 -29.1697  -9.3087  -9.3087  -4.3332  -2.6070  -2.6070   0.6981
     2.7647   2.7647   5.8181   6.4870

     occupation numbers 
     1.0000   1.0000   1.0000   1.0000   1.0000   1.0000   1.0000   1.0000
     1.0000   1.0000   1.0000   1.0000   1.0000   1.0000   1.0000   0.0000
     0.0000   0.0000   0.0000   0.0000

     highest occupied, lowest unoccupied level (ev):    -0.8438    0.4626

!    total energy              =    -363.80631577 Ry
     estimated scf accuracy    <          1.6E-09 Ry

     The total energy is the sum of the following terms:
     one-electron contribution =    -771.21377590 Ry
     hartree contribution      =     389.83014710 Ry
     xc contribution           =     -90.87680612 Ry
     ewald contribution        =     108.45411916 Ry

     convergence has been achieved in   8 iterations

     Forces acting on atoms (cartesian axes, Ry/au):

     atom    1 type  1   force =     0.00000000    0.00000000   -0.00179437
     atom    2 type  1   force =    -0.00000000   -0.00000000    0.00179437
     The non-local contrib.  to forces
     atom    1 type  1   force =     0.00000000    0.00000000    0.61211795
     atom    2 type  1   force =     0.00000000    0.00000000   -0.61212878
     The ionic contribution  to forces
     atom    1 type  1   force =    -0.00000001    0.00000001  -34.60727776
     atom    2 type  1   force =     0.00000001   -0.00000001   34.60727776
     The local contribution  to forces
     atom    1 type  1   force =     0.00000000   -0.00000000   33.99756696
     atom    2 type  1   force =     0.00000044   -0.00000025  -33.99755364
     The core correction contribution to forces
     atom    1 type  1   force =    -0.00000000    0.00000000   -0.00424228
     atom    2 type  1   force =     0.00000002   -0.00000001    0.00424217
     The Hubbard contrib.    to forces
     atom    1 type  1   force =     0.00000000    0.00000000    0.00000000
     atom    2 type  1   force =     0.00000000    0.00000000    0.00000000
     The SCF correction term to forces
     atom    1 type  1   force =    -0.00000000    0.00000000    0.00000000
     atom    2 type  1   force =     0.00000000   -0.00000000   -0.00004681

     Total force =     0.001794     Total SCF correction =     0.000047


     Computing stress (Cartesian axis) and pressure

          total   stress  (Ry/bohr**3)                   (kbar)     P=        0.33
   0.00000239   0.00000000  -0.00000000            0.35        0.00       -0.00
  -0.00000000   0.00000239  -0.00000000           -0.00        0.35       -0.00
   0.00000000   0.00000000   0.00000191            0.00        0.00        0.28

     kinetic stress (kbar)  14005.88      0.00     -0.00
                                0.00  14005.88     -0.00
                               -0.00     -0.00  14038.38

     local   stress (kbar) -62665.11      0.00     -0.00
                                0.00 -62665.11      0.00
                               -0.00      0.00  57771.49

     nonloc. stress (kbar)  -6047.70     -0.00      0.00
                                0.00  -6047.70      0.00
                               -0.00     -0.00  -6031.67

     hartree stress (kbar)  32252.20      0.00     -0.00
                                0.00  32252.20     -0.00
                               -0.00     -0.00 -25984.93

     exc-cor stress (kbar)   3405.29     -0.00      0.00
                               -0.00   3405.29     -0.00
                                0.00     -0.00   3404.07

     corecor stress (kbar)  -5271.18     -0.00      0.00
                               -0.00  -5271.18     -0.00
                                0.00     -0.00  -5271.57

     ewald   stress (kbar)  24320.96     -0.00      0.00
                               -0.00  24320.96     -0.00
                                0.00     -0.00 -37925.48

     hubbard stress (kbar)      0.00      0.00      0.00
                                0.00      0.00      0.00
                                0.00      0.00      0.00

     DFT-D   stress (kbar)      0.00      0.00      0.00
                                0.00      0.00      0.00
                                0.00      0.00      0.00

     XDM     stress (kbar)      0.00      0.00      0.00
                                0.00      0.00      0.00
                                0.00      0.00      0.00

     dft-nl  stress (kbar)      0.00      0.00      0.00
                                0.00      0.00      0.00
                                0.00      0.00      0.00

     TS-vdW  stress (kbar)      0.00      0.00      0.00
                                0.00      0.00      0.00
                                0.00      0.00      0.00


     Energy error            =      9.2E-06
     Gradient error          =      1.8E-03
     Cell gradient error     =      2.4E-06


     number of scf cycles    =   3
     number of bfgs steps    =   2

     enthalpy old            =    -363.8063065789 Ry
     enthalpy new            =    -363.8063157696 Ry

     CASE: enthalpy_new < enthalpy_old

     new trust radius        =       0.0052764985 bohr
     new conv_thr            =       0.0000000100 Ry

     new unit-cell volume =   1489.33045 a.u.^3 (   220.69600 Ang^3 )
     density =      0.18074 g/cm^3

CELL_PARAMETERS (alat=  7.78567163)
   1.000435450  -0.000000000   0.000000000
  -0.500217725   0.866402515   0.000000000
   0.000000000   0.000000000   3.640776699

ATOMIC_POSITIONS (crystal)
Sb            0.0000000000        0.0000000000        0.5000000000    0   0   0
Sb            0.3333333330        0.6666666670        0.6090230610



     Writing output data file ./tmp/Sb.save/
     NEW-OLD atomic charge density approx. for the potential
     extrapolated charge   30.01161, renormalised to   30.00000

     total cpu time spent up to now is       37.9 secs

     Self-consistent Calculation

     iteration #  1     ecut=    80.00 Ry     beta= 0.70
     Davidson diagonalization with overlap
     ethr =  1.00E-06,  avg # of iterations =  4.7

     total cpu time spent up to now is       40.0 secs

     total energy              =    -363.80624968 Ry
     estimated scf accuracy    <       0.00004358 Ry

     iteration #  2     ecut=    80.00 Ry     beta= 0.70
     Davidson diagonalization with overlap
     ethr =  1.45E-07,  avg # of iterations =  4.8

     total cpu time spent up to now is       41.8 secs

     total energy              =    -363.80632225 Ry
     estimated scf accuracy    <       0.00010655 Ry

     iteration #  3     ecut=    80.00 Ry     beta= 0.70
     Davidson diagonalization with overlap
     ethr =  1.45E-07,  avg # of iterations =  2.0

     total cpu time spent up to now is       43.1 secs

     total energy              =    -363.80632565 Ry
     estimated scf accuracy    <       0.00001815 Ry

     iteration #  4     ecut=    80.00 Ry     beta= 0.70
     Davidson diagonalization with overlap
     ethr =  6.05E-08,  avg # of iterations =  1.0

     total cpu time spent up to now is       44.1 secs

     total energy              =    -363.80632534 Ry
     estimated scf accuracy    <       0.00000820 Ry

     iteration #  5     ecut=    80.00 Ry     beta= 0.70
     Davidson diagonalization with overlap
     ethr =  2.73E-08,  avg # of iterations =  1.3

     total cpu time spent up to now is       45.3 secs

     total energy              =    -363.80632337 Ry
     estimated scf accuracy    <       0.00000538 Ry

     iteration #  6     ecut=    80.00 Ry     beta= 0.70
     Davidson diagonalization with overlap
     ethr =  1.79E-08,  avg # of iterations =  2.0

     total cpu time spent up to now is       46.5 secs

     total energy              =    -363.80632356 Ry
     estimated scf accuracy    <       0.00000079 Ry

     iteration #  7     ecut=    80.00 Ry     beta= 0.70
     Davidson diagonalization with overlap
     ethr =  2.64E-09,  avg # of iterations =  3.0

     total cpu time spent up to now is       47.8 secs

     total energy              =    -363.80632363 Ry
     estimated scf accuracy    <       0.00000007 Ry

     iteration #  8     ecut=    80.00 Ry     beta= 0.70
     Davidson diagonalization with overlap
     ethr =  2.32E-10,  avg # of iterations =  3.4

     total cpu time spent up to now is       49.1 secs

     End of self-consistent calculation

          k = 0.0000 0.0000 0.0000 ( 17889 PWs)   bands (ev):

   -29.4212 -29.4212 -29.3510 -29.3510 -29.3051 -29.2446 -29.2446 -29.2067
   -29.1627 -29.1627 -12.0951  -7.1258  -1.4093  -0.8375  -0.8375   0.7310
     1.9525   1.9525   3.6222   3.6251

     occupation numbers 
     1.0000   1.0000   1.0000   1.0000   1.0000   1.0000   1.0000   1.0000
     1.0000   1.0000   1.0000   1.0000   1.0000   1.0000   1.0000   0.0000
     0.0000   0.0000   0.0000   0.0000

          k = 0.0000 0.1282 0.0000 ( 17911 PWs)   bands (ev):

   -29.4204 -29.4150 -29.3501 -29.3471 -29.3034 -29.2473 -29.2448 -29.2084
   -29.1698 -29.1631 -11.9644  -7.1272  -1.9164  -1.3579  -1.1181   1.2362
     2.0014   2.2178   3.7627   3.8074

     occupation numbers 
     1.0000   1.0000   1.0000   1.0000   1.0000   1.0000   1.0000   1.0000
     1.0000   1.0000   1.0000   1.0000   1.0000   1.0000   1.0000   0.0000
     0.0000   0.0000   0.0000   0.0000

          k = 0.0000 0.2565 0.0000 ( 17947 PWs)   bands (ev):

   -29.4184 -29.3977 -29.3478 -29.3362 -29.2982 -29.2553 -29.2459 -29.2138
   -29.1889 -29.1640 -11.5807  -7.2411  -3.1988  -1.6494  -1.3220   0.6409
     2.5988   2.6532   4.0583   4.2475

     occupation numbers 
     1.0000   1.0000   1.0000   1.0000   1.0000   1.0000   1.0000   1.0000
     1.0000   1.0000   1.0000   1.0000   1.0000   1.0000   1.0000   0.0000
     0.0000   0.0000   0.0000   0.0000

          k = 0.0000 0.3847 0.0000 ( 17991 PWs)   bands (ev):

   -29.4159 -29.3750 -29.3419 -29.3204 -29.2898 -29.2679 -29.2498 -29.2284
   -29.2082 -29.1652 -10.9810  -7.7260  -3.8128  -2.1007  -1.6481   0.4617
     2.2494   2.7285   4.5781   4.6991

     occupation numbers 
     1.0000   1.0000   1.0000   1.0000   1.0000   1.0000   1.0000   1.0000
     1.0000   1.0000   1.0000   1.0000   1.0000   1.0000   1.0000   0.0000
     0.0000   0.0000   0.0000   0.0000

          k = 0.0000 0.5130 0.0000 ( 18004 PWs)   bands (ev):

   -29.4143 -29.3623 -29.3247 -29.3022 -29.2856 -29.2840 -29.2564 -29.2502
   -29.2144 -29.1660 -10.3261  -8.4470  -3.7929  -2.3466  -2.1742   0.7308
     1.7264   2.7179   4.3463   5.6214

     occupation numbers 
     1.0000   1.0000   1.0000   1.0000   1.0000   1.0000   1.0000   1.0000
     1.0000   1.0000   1.0000   1.0000   1.0000   1.0000   1.0000   0.0000
     0.0000   0.0000   0.0000   0.0000

          k = 0.1111 0.1924 0.0000 ( 17959 PWs)   bands (ev):

   -29.4191 -29.4030 -29.3480 -29.3404 -29.2998 -29.2531 -29.2449 -29.2120
   -29.1829 -29.1639 -11.7068  -7.1824  -2.8109  -1.7765  -1.2892   1.4080
     1.8097   2.8387   4.0255   4.0840

     occupation numbers 
     1.0000   1.0000   1.0000   1.0000   1.0000   1.0000   1.0000   1.0000
     1.0000   1.0000   1.0000   1.0000   1.0000   1.0000   1.0000   0.0000
     0.0000   0.0000   0.0000   0.0000

          k = 0.1111 0.3206 0.0000 ( 17972 PWs)   bands (ev):

   -29.4170 -29.3817 -29.3440 -29.3287 -29.2921 -29.2645 -29.2460 -29.2212
   -29.2034 -29.1653 -11.2104  -7.4846  -3.5494  -2.5011  -1.3727   1.0307
     2.2047   2.7538   4.4173   4.5852

     occupation numbers 
     1.0000   1.0000   1.0000   1.0000   1.0000   1.0000   1.0000   1.0000
     1.0000   1.0000   1.0000   1.0000   1.0000   1.0000   1.0000   0.0000
     0.0000   0.0000   0.0000   0.0000

          k = 0.1111 0.4489 0.0000 ( 17997 PWs)   bands (ev):

   -29.4150 -29.3612 -29.3335 -29.3132 -29.2838 -29.2793 -29.2502 -29.2430
   -29.2150 -29.1666 -10.5448  -8.1504  -3.7907  -2.8251  -1.8377   1.0744
     2.0219   2.4822   4.6875   5.2641

     occupation numbers 
     1.0000   1.0000   1.0000   1.0000   1.0000   1.0000   1.0000   1.0000
     1.0000   1.0000   1.0000   1.0000   1.0000   1.0000   1.0000   0.0000
     0.0000   0.0000   0.0000   0.0000

          k = 0.1111 0.5771 0.0000 ( 17987 PWs)   bands (ev):

   -29.4142 -29.3558 -29.3167 -29.3004 -29.2957 -29.2817 -29.2585 -29.2518
   -29.2177 -29.1671 -10.0828  -8.6567  -3.8030  -2.7452  -2.2689   1.4669
     1.5101   2.4973   4.4492   6.3106

     occupation numbers 
     1.0000   1.0000   1.0000   1.0000   1.0000   1.0000   1.0000   1.0000
     1.0000   1.0000   1.0000   1.0000   1.0000   1.0000   1.0000   0.0000
     0.0000   0.0000   0.0000   0.0000

          k = 0.2221 0.3847 0.0000 ( 18009 PWs)   bands (ev):

   -29.4155 -29.3584 -29.3377 -29.3190 -29.2819 -29.2800 -29.2448 -29.2401
   -29.2164 -29.1672 -10.6286  -8.0053  -3.4981  -3.4675  -1.6506   1.4769
     1.6636   2.9997   4.9634   5.1987

     occupation numbers 
     1.0000   1.0000   1.0000   1.0000   1.0000   1.0000   1.0000   1.0000
     1.0000   1.0000   1.0000   1.0000   1.0000   1.0000   1.0000   0.0000
     0.0000   0.0000   0.0000   0.0000

          k = 0.2221 0.5130 0.0000 ( 18011 PWs)   bands (ev):

   -29.4144 -29.3423 -29.3237 -29.3050 -29.2988 -29.2747 -29.2638 -29.2438
   -29.2239 -29.1686  -9.9553  -8.6858  -4.0430  -3.0515  -2.1671   1.0203
     2.2337   2.7988   5.1975   6.0737

     occupation numbers 
     1.0000   1.0000   1.0000   1.0000   1.0000   1.0000   1.0000   1.0000
     1.0000   1.0000   1.0000   1.0000   1.0000   1.0000   1.0000   0.0000
     0.0000   0.0000   0.0000   0.0000

          k = 0.3332 0.5771 0.0000 ( 18045 PWs)   bands (ev):

   -29.4142 -29.3213 -29.3213 -29.3202 -29.2863 -29.2863 -29.2704 -29.2344
   -29.2344 -29.1697  -9.3031  -9.3031  -4.3244  -2.6072  -2.6072   0.6934
     2.7562   2.7562   5.8152   6.4880

     occupation numbers 
     1.0000   1.0000   1.0000   1.0000   1.0000   1.0000   1.0000   1.0000
     1.0000   1.0000   1.0000   1.0000   1.0000   1.0000   1.0000   0.0000
     0.0000   0.0000   0.0000   0.0000

     highest occupied, lowest unoccupied level (ev):    -0.8375    0.4617

!    total energy              =    -363.80632365 Ry
     estimated scf accuracy    <          4.7E-10 Ry

     The total energy is the sum of the following terms:
     one-electron contribution =    -770.66411361 Ry
     hartree contribution      =     389.55687500 Ry
     xc contribution           =     -90.87536209 Ry
     ewald contribution        =     108.17627705 Ry

     convergence has been achieved in   8 iterations

     Forces acting on atoms (cartesian axes, Ry/au):

     atom    1 type  1   force =     0.00000000    0.00000000   -0.00075077
     atom    2 type  1   force =     0.00000000    0.00000000    0.00075077
     The non-local contrib.  to forces
     atom    1 type  1   force =    -0.00000000   -0.00000000    0.61141637
     atom    2 type  1   force =    -0.00000000   -0.00000000   -0.61142672
     The ionic contribution  to forces
     atom    1 type  1   force =    -0.00000001    0.00000001  -34.60227814
     atom    2 type  1   force =     0.00000001   -0.00000001   34.60227814
     The local contribution  to forces
     atom    1 type  1   force =    -0.00000000   -0.00000000   33.99456546
     atom    2 type  1   force =     0.00000044   -0.00000025  -33.99455656
     The core correction contribution to forces
     atom    1 type  1   force =    -0.00000000   -0.00000000   -0.00432114
     atom    2 type  1   force =     0.00000002   -0.00000001    0.00432102
     The Hubbard contrib.    to forces
     atom    1 type  1   force =     0.00000000    0.00000000    0.00000000
     atom    2 type  1   force =     0.00000000    0.00000000    0.00000000
     The SCF correction term to forces
     atom    1 type  1   force =    -0.00000000    0.00000000   -0.00000000
     atom    2 type  1   force =    -0.00000000    0.00000000    0.00013508

     Total force =     0.000751     Total SCF correction =     0.000135
     SCF correction compared to forces is large: reduce conv_thr to get better values


     Computing stress (Cartesian axis) and pressure

          total   stress  (Ry/bohr**3)                   (kbar)     P=        0.10
   0.00000111   0.00000000   0.00000000            0.16        0.00        0.00
   0.00000000   0.00000111   0.00000000            0.00        0.16        0.00
   0.00000000   0.00000000  -0.00000010            0.00        0.00       -0.01

     kinetic stress (kbar)  14000.49      0.00      0.00
                                0.00  14000.49      0.00
                               -0.00     -0.00  14032.54

     local   stress (kbar) -62575.86      0.00     -0.00
                                0.00 -62575.86      0.00
                               -0.00      0.00  57673.85

     nonloc. stress (kbar)  -6045.58     -0.00      0.00
                               -0.00  -6045.58      0.00
                                0.00      0.00  -6029.60

     hartree stress (kbar)  32209.10     -0.00     -0.00
                               -0.00  32209.10     -0.00
                               -0.00     -0.00 -25940.65

     exc-cor stress (kbar)   3404.02     -0.00      0.00
                               -0.00   3404.02     -0.00
                                0.00     -0.00   3402.80

     corecor stress (kbar)  -5269.14     -0.00      0.00
                               -0.00  -5269.14     -0.00
                                0.00     -0.00  -5269.53

     ewald   stress (kbar)  24277.14     -0.00      0.00
                               -0.00  24277.14     -0.00
                                0.00     -0.00 -37869.42

     hubbard stress (kbar)      0.00      0.00      0.00
                                0.00      0.00      0.00
                                0.00      0.00      0.00

     DFT-D   stress (kbar)      0.00      0.00      0.00
                                0.00      0.00      0.00
                                0.00      0.00      0.00

     XDM     stress (kbar)      0.00      0.00      0.00
                                0.00      0.00      0.00
                                0.00      0.00      0.00

     dft-nl  stress (kbar)      0.00      0.00      0.00
                                0.00      0.00      0.00
                                0.00      0.00      0.00

     TS-vdW  stress (kbar)      0.00      0.00      0.00
                                0.00      0.00      0.00
                                0.00      0.00      0.00


     Energy error            =      7.9E-06
     Gradient error          =      7.5E-04
     Cell gradient error     =      1.1E-06


     number of scf cycles    =   4
     number of bfgs steps    =   3

     enthalpy old            =    -363.8063157696 Ry
     enthalpy new            =    -363.8063236486 Ry

     CASE: enthalpy_new < enthalpy_old

     new trust radius        =       0.0038746369 bohr
     new conv_thr            =       0.0000000100 Ry

     new unit-cell volume =   1489.76619 a.u.^3 (   220.76057 Ang^3 )
     density =      0.18069 g/cm^3

CELL_PARAMETERS (alat=  7.78567163)
   1.000581790  -0.000000000   0.000000000
  -0.500290895   0.866529249   0.000000000
   0.000000000   0.000000000   3.640776699

ATOMIC_POSITIONS (crystal)
Sb            0.0000000000        0.0000000000        0.5000000000    0   0   0
Sb            0.3333333330        0.6666666670        0.6091597523



     Writing output data file ./tmp/Sb.save/
     NEW-OLD atomic charge density approx. for the potential
     extrapolated charge   30.00877, renormalised to   30.00000

     total cpu time spent up to now is       51.7 secs

     Self-consistent Calculation

     iteration #  1     ecut=    80.00 Ry     beta= 0.70
     Davidson diagonalization with overlap
     ethr =  1.00E-06,  avg # of iterations =  4.4

     Threshold (ethr) on eigenvalues was too large:
     Diagonalizing with lowered threshold

     Davidson diagonalization with overlap
     ethr =  8.24E-08,  avg # of iterations =  2.0

     total cpu time spent up to now is       54.8 secs

     total energy              =    -363.80628035 Ry
     estimated scf accuracy    <       0.00002737 Ry

     iteration #  2     ecut=    80.00 Ry     beta= 0.70
     Davidson diagonalization with overlap
     ethr =  9.12E-08,  avg # of iterations =  3.9

     total cpu time spent up to now is       56.5 secs

     total energy              =    -363.80632434 Ry
     estimated scf accuracy    <       0.00006708 Ry

     iteration #  3     ecut=    80.00 Ry     beta= 0.70
     Davidson diagonalization with overlap
     ethr =  9.12E-08,  avg # of iterations =  2.0

     total cpu time spent up to now is       57.8 secs

     total energy              =    -363.80632665 Ry
     estimated scf accuracy    <       0.00001122 Ry

     iteration #  4     ecut=    80.00 Ry     beta= 0.70
     Davidson diagonalization with overlap
     ethr =  3.74E-08,  avg # of iterations =  1.0

     total cpu time spent up to now is       58.8 secs

     total energy              =    -363.80632639 Ry
     estimated scf accuracy    <       0.00000516 Ry

     iteration #  5     ecut=    80.00 Ry     beta= 0.70
     Davidson diagonalization with overlap
     ethr =  1.72E-08,  avg # of iterations =  1.3

     total cpu time spent up to now is       59.9 secs

     total energy              =    -363.80632530 Ry
     estimated scf accuracy    <       0.00000327 Ry

     iteration #  6     ecut=    80.00 Ry     beta= 0.70
     Davidson diagonalization with overlap
     ethr =  1.09E-08,  avg # of iterations =  2.0

     total cpu time spent up to now is       61.1 secs

     total energy              =    -363.80632531 Ry
     estimated scf accuracy    <       0.00000059 Ry

     iteration #  7     ecut=    80.00 Ry     beta= 0.70
     Davidson diagonalization with overlap
     ethr =  1.96E-09,  avg # of iterations =  2.8

     total cpu time spent up to now is       62.4 secs

     total energy              =    -363.80632537 Ry
     estimated scf accuracy    <       0.00000004 Ry

     iteration #  8     ecut=    80.00 Ry     beta= 0.70
     Davidson diagonalization with overlap
     ethr =  1.37E-10,  avg # of iterations =  3.4

     total cpu time spent up to now is       63.8 secs

     End of self-consistent calculation

          k = 0.0000 0.0000 0.0000 ( 17889 PWs)   bands (ev):

   -29.4198 -29.4198 -29.3500 -29.3500 -29.3043 -29.2441 -29.2441 -29.2063
   -29.1625 -29.1625 -12.0874  -7.1295  -1.4125  -0.8328  -0.8328   0.7332
     1.9523   1.9523   3.6215   3.6230

     occupation numbers 
     1.0000   1.0000   1.0000   1.0000   1.0000   1.0000   1.0000   1.0000
     1.0000   1.0000   1.0000   1.0000   1.0000   1.0000   1.0000   0.0000
     0.0000   0.0000   0.0000   0.0000

          k = 0.0000 0.1282 0.0000 ( 17911 PWs)   bands (ev):

   -29.4190 -29.4136 -29.3491 -29.3461 -29.3027 -29.2468 -29.2443 -29.2080
   -29.1696 -29.1628 -11.9569  -7.1307  -1.9111  -1.3611  -1.1132   1.2370
     2.0006   2.2166   3.7611   3.8067

     occupation numbers 
     1.0000   1.0000   1.0000   1.0000   1.0000   1.0000   1.0000   1.0000
     1.0000   1.0000   1.0000   1.0000   1.0000   1.0000   1.0000   0.0000
     0.0000   0.0000   0.0000   0.0000

          k = 0.0000 0.2565 0.0000 ( 17947 PWs)   bands (ev):

   -29.4169 -29.3963 -29.3467 -29.3353 -29.2974 -29.2548 -29.2455 -29.2134
   -29.1886 -29.1638 -11.5735  -7.2437  -3.1934  -1.6440  -1.3249   0.6407
     2.5955   2.6507   4.0571   4.2457

     occupation numbers 
     1.0000   1.0000   1.0000   1.0000   1.0000   1.0000   1.0000   1.0000
     1.0000   1.0000   1.0000   1.0000   1.0000   1.0000   1.0000   0.0000
     0.0000   0.0000   0.0000   0.0000

          k = 0.0000 0.3847 0.0000 ( 17991 PWs)   bands (ev):

   -29.4145 -29.3738 -29.3409 -29.3195 -29.2890 -29.2673 -29.2494 -29.2277
   -29.2079 -29.1650 -10.9744  -7.7258  -3.8093  -2.0949  -1.6500   0.4612
     2.2472   2.7239   4.5752   4.6970

     occupation numbers 
     1.0000   1.0000   1.0000   1.0000   1.0000   1.0000   1.0000   1.0000
     1.0000   1.0000   1.0000   1.0000   1.0000   1.0000   1.0000   0.0000
     0.0000   0.0000   0.0000   0.0000

          k = 0.0000 0.5129 0.0000 ( 18004 PWs)   bands (ev):

   -29.4128 -29.3612 -29.3237 -29.3014 -29.2849 -29.2833 -29.2558 -29.2495
   -29.2141 -29.1658 -10.3203  -8.4443  -3.7916  -2.3407  -2.1753   0.7319
     1.7221   2.7129   4.3438   5.6185

     occupation numbers 
     1.0000   1.0000   1.0000   1.0000   1.0000   1.0000   1.0000   1.0000
     1.0000   1.0000   1.0000   1.0000   1.0000   1.0000   1.0000   0.0000
     0.0000   0.0000   0.0000   0.0000

          k = 0.1110 0.1923 0.0000 ( 17959 PWs)   bands (ev):

   -29.4177 -29.4017 -29.3470 -29.3394 -29.2990 -29.2526 -29.2445 -29.2115
   -29.1827 -29.1636 -11.6995  -7.1854  -2.8053  -1.7715  -1.2920   1.4064
     1.8096   2.8353   4.0239   4.0835

     occupation numbers 
     1.0000   1.0000   1.0000   1.0000   1.0000   1.0000   1.0000   1.0000
     1.0000   1.0000   1.0000   1.0000   1.0000   1.0000   1.0000   0.0000
     0.0000   0.0000   0.0000   0.0000

          k = 0.1110 0.3206 0.0000 ( 17972 PWs)   bands (ev):

   -29.4155 -29.3804 -29.3430 -29.3278 -29.2913 -29.2639 -29.2455 -29.2206
   -29.2032 -29.1650 -11.2036  -7.4857  -3.5449  -2.4957  -1.3748   1.0289
     2.2015   2.7513   4.4161   4.5835

     occupation numbers 
     1.0000   1.0000   1.0000   1.0000   1.0000   1.0000   1.0000   1.0000
     1.0000   1.0000   1.0000   1.0000   1.0000   1.0000   1.0000   0.0000
     0.0000   0.0000   0.0000   0.0000

          k = 0.1110 0.4488 0.0000 ( 17997 PWs)   bands (ev):

   -29.4136 -29.3601 -29.3325 -29.3123 -29.2831 -29.2786 -29.2497 -29.2423
   -29.2147 -29.1663 -10.5387  -8.1487  -3.7880  -2.8200  -1.8387   1.0722
     2.0192   2.4785   4.6852   5.2616

     occupation numbers 
     1.0000   1.0000   1.0000   1.0000   1.0000   1.0000   1.0000   1.0000
     1.0000   1.0000   1.0000   1.0000   1.0000   1.0000   1.0000   0.0000
     0.0000   0.0000   0.0000   0.0000

          k = 0.1110 0.5770 0.0000 ( 17987 PWs)   bands (ev):

   -29.4128 -29.3547 -29.3157 -29.2996 -29.2949 -29.2810 -29.2577 -29.2513
   -29.2174 -29.1668 -10.0774  -8.6534  -3.8006  -2.7404  -2.2697   1.4623
     1.5106   2.4919   4.4477   6.3075

     occupation numbers 
     1.0000   1.0000   1.0000   1.0000   1.0000   1.0000   1.0000   1.0000
     1.0000   1.0000   1.0000   1.0000   1.0000   1.0000   1.0000   0.0000
     0.0000   0.0000   0.0000   0.0000

          k = 0.2221 0.3847 0.0000 ( 18009 PWs)   bands (ev):

   -29.4140 -29.3572 -29.3368 -29.3181 -29.2812 -29.2793 -29.2444 -29.2394
   -29.2161 -29.1669 -10.6224  -8.0042  -3.4923  -3.4648  -1.6520   1.4734
     1.6594   2.9964   4.9647   5.1965

     occupation numbers 
     1.0000   1.0000   1.0000   1.0000   1.0000   1.0000   1.0000   1.0000
     1.0000   1.0000   1.0000   1.0000   1.0000   1.0000   1.0000   0.0000
     0.0000   0.0000   0.0000   0.0000

          k = 0.2221 0.5129 0.0000 ( 18011 PWs)   bands (ev):

   -29.4130 -29.3413 -29.3228 -29.3041 -29.2981 -29.2740 -29.2631 -29.2433
   -29.2236 -29.1684  -9.9500  -8.6827  -4.0372  -3.0499  -2.1678   1.0167
     2.2287   2.7943   5.1983   6.0712

     occupation numbers 
     1.0000   1.0000   1.0000   1.0000   1.0000   1.0000   1.0000   1.0000
     1.0000   1.0000   1.0000   1.0000   1.0000   1.0000   1.0000   0.0000
     0.0000   0.0000   0.0000   0.0000

          k = 0.3331 0.5770 0.0000 ( 18045 PWs)   bands (ev):

   -29.4128 -29.3204 -29.3204 -29.3194 -29.2854 -29.2854 -29.2698 -29.2340
   -29.2340 -29.1694  -9.2988  -9.2988  -4.3177  -2.6071  -2.6071   0.6900
     2.7500   2.7500   5.8131   6.4886

     occupation numbers 
     1.0000   1.0000   1.0000   1.0000   1.0000   1.0000   1.0000   1.0000
     1.0000   1.0000   1.0000   1.0000   1.0000   1.0000   1.0000   0.0000
     0.0000   0.0000   0.0000   0.0000

     highest occupied, lowest unoccupied level (ev):    -0.8328    0.4612

!    total energy              =    -363.80632538 Ry
     estimated scf accuracy    <          2.9E-10 Ry

     The total energy is the sum of the following terms:
     one-electron contribution =    -770.25601968 Ry
     hartree contribution      =     389.35359665 Ry
     xc contribution           =     -90.87425329 Ry
     ewald contribution        =     107.97035093 Ry

     convergence has been achieved in   8 iterations

     Forces acting on atoms (cartesian axes, Ry/au):

     atom    1 type  1   force =     0.00000000    0.00000000    0.00002035
     atom    2 type  1   force =    -0.00000000   -0.00000000   -0.00002035
     The non-local contrib.  to forces
     atom    1 type  1   force =    -0.00000000   -0.00000000    0.61092393
     atom    2 type  1   force =    -0.00000000   -0.00000000   -0.61092383
     The ionic contribution  to forces
     atom    1 type  1   force =    -0.00000001    0.00000001  -34.59817849
     atom    2 type  1   force =     0.00000001   -0.00000001   34.59817849
     The local contribution  to forces
     atom    1 type  1   force =     0.00000000   -0.00000000   33.99176609
     atom    2 type  1   force =     0.00000044   -0.00000025  -33.99175774
     The core correction contribution to forces
     atom    1 type  1   force =    -0.00000000   -0.00000000   -0.00438532
     atom    2 type  1   force =     0.00000002   -0.00000001    0.00438464
     The Hubbard contrib.    to forces
     atom    1 type  1   force =     0.00000000    0.00000000    0.00000000
     atom    2 type  1   force =     0.00000000    0.00000000    0.00000000
     The SCF correction term to forces
     atom    1 type  1   force =    -0.00000000    0.00000000   -0.00000000
     atom    2 type  1   force =    -0.00000000    0.00000000    0.00009574

     Total force =     0.000020     Total SCF correction =     0.000096
     SCF correction compared to forces is large: reduce conv_thr to get better values


     Computing stress (Cartesian axis) and pressure

          total   stress  (Ry/bohr**3)                   (kbar)     P=       -0.08
   0.00000008  -0.00000000   0.00000000            0.01       -0.00        0.00
   0.00000000   0.00000008   0.00000000            0.00        0.01        0.00
   0.00000000   0.00000000  -0.00000175            0.00        0.00       -0.26

     kinetic stress (kbar)  13996.40     -0.00      0.00
                                0.00  13996.40      0.00
                                0.00      0.00  14028.13

     local   stress (kbar) -62509.36      0.00     -0.00
                                0.00 -62509.36      0.00
                               -0.00      0.00  57601.16

     nonloc. stress (kbar)  -6043.98      0.00      0.00
                                0.00  -6043.98      0.00
                                0.00      0.00  -6028.04

     hartree stress (kbar)  32176.94     -0.00     -0.00
                               -0.00  32176.94     -0.00
                               -0.00     -0.00 -25907.66

     exc-cor stress (kbar)   3403.05     -0.00      0.00
                               -0.00   3403.05     -0.00
                                0.00     -0.00   3401.84

     corecor stress (kbar)  -5267.60     -0.00      0.00
                               -0.00  -5267.60     -0.00
                                0.00     -0.00  -5267.98

     ewald   stress (kbar)  24244.55     -0.00      0.00
                               -0.00  24244.55     -0.00
                                0.00     -0.00 -37827.70

     hubbard stress (kbar)      0.00      0.00      0.00
                                0.00      0.00      0.00
                                0.00      0.00      0.00

     DFT-D   stress (kbar)      0.00      0.00      0.00
                                0.00      0.00      0.00
                                0.00      0.00      0.00

     XDM     stress (kbar)      0.00      0.00      0.00
                                0.00      0.00      0.00
                                0.00      0.00      0.00

     dft-nl  stress (kbar)      0.00      0.00      0.00
                                0.00      0.00      0.00
                                0.00      0.00      0.00

     TS-vdW  stress (kbar)      0.00      0.00      0.00
                                0.00      0.00      0.00
                                0.00      0.00      0.00


     Energy error            =      1.7E-06
     Gradient error          =      2.0E-05
     Cell gradient error     =      7.7E-08


     number of scf cycles    =   5
     number of bfgs steps    =   4

     enthalpy old            =    -363.8063236486 Ry
     enthalpy new            =    -363.8063253830 Ry

     CASE: enthalpy_new < enthalpy_old

     small trust_radius: resetting bfgs history

     new trust radius        =       0.0000203498 bohr
     new conv_thr            =       0.0000000100 Ry

     new unit-cell volume =   1489.77193 a.u.^3 (   220.76142 Ang^3 )
     density =      0.18069 g/cm^3

CELL_PARAMETERS (alat=  7.78567163)
   1.000583718  -0.000000000   0.000000000
  -0.500291859   0.866530918   0.000000000
   0.000000000   0.000000000   3.640776699

ATOMIC_POSITIONS (crystal)
Sb            0.0000000000        0.0000000000        0.5000000000    0   0   0
Sb            0.3333333330        0.6666666670        0.6091590344



     Writing output data file ./tmp/Sb.save/
     NEW-OLD atomic charge density approx. for the potential
     extrapolated charge   30.00012, renormalised to   30.00000

     total cpu time spent up to now is       66.4 secs

     Self-consistent Calculation

     iteration #  1     ecut=    80.00 Ry     beta= 0.70
     Davidson diagonalization with overlap
     ethr =  1.00E-06,  avg # of iterations =  1.0

     Threshold (ethr) on eigenvalues was too large:
     Diagonalizing with lowered threshold

     Davidson diagonalization with overlap
     ethr =  4.63E-11,  avg # of iterations =  3.0

     total cpu time spent up to now is       68.9 secs

     End of self-consistent calculation

          k = 0.0000 0.0000 0.0000 ( 17889 PWs)   bands (ev):

   -29.4181 -29.4181 -29.3483 -29.3483 -29.3027 -29.2425 -29.2425 -29.2047
   -29.1609 -29.1609 -12.0862  -7.1284  -1.4117  -0.8316  -0.8316   0.7343
     1.9534   1.9534   3.6216   3.6228

     occupation numbers 
     1.0000   1.0000   1.0000   1.0000   1.0000   1.0000   1.0000   1.0000
     1.0000   1.0000   1.0000   1.0000   1.0000   1.0000   1.0000   0.0000
     0.0000   0.0000   0.0000   0.0000

          k = 0.0000 0.1282 0.0000 ( 17911 PWs)   bands (ev):

   -29.4174 -29.4120 -29.3475 -29.3445 -29.3011 -29.2452 -29.2427 -29.2064
   -29.1680 -29.1612 -11.9556  -7.1297  -1.9099  -1.3602  -1.1120   1.2381
     2.0017   2.2177   3.7609   3.8067

     occupation numbers 
     1.0000   1.0000   1.0000   1.0000   1.0000   1.0000   1.0000   1.0000
     1.0000   1.0000   1.0000   1.0000   1.0000   1.0000   1.0000   0.0000
     0.0000   0.0000   0.0000   0.0000

          k = 0.0000 0.2565 0.0000 ( 17947 PWs)   bands (ev):

[...]

   Cartesian axes

     site n.     atom                  positions (alat units)
         1           Sb  tau(   1) = (   0.0000000   0.0000000   1.8203883  )
         2           Sb  tau(   2) = (  -0.0000000   0.5776873   2.2178120  )

   Crystallographic axes

     site n.     atom                  positions (cryst. coord.)
         1           Sb  tau(   1) = (  0.0000000  0.0000000  0.5000000  )
         2           Sb  tau(   2) = (  0.3333333  0.6666667  0.6091590  )

     number of k points=    12
                       cart. coord. in units 2pi/alat
        k(    1) = (   0.0000000   0.0000000   0.0000000), wk =   0.0246914
        k(    2) = (   0.0000000   0.1282252   0.0000000), wk =   0.1481481
        k(    3) = (   0.0000000   0.2564504   0.0000000), wk =   0.1481481
        k(    4) = (   0.0000000   0.3846756   0.0000000), wk =   0.1481481
        k(    5) = (   0.0000000   0.5129008   0.0000000), wk =   0.1481481
        k(    6) = (   0.1110463   0.1923378   0.0000000), wk =   0.1481481
        k(    7) = (   0.1110463   0.3205630   0.0000000), wk =   0.2962963
        k(    8) = (   0.1110463   0.4487882   0.0000000), wk =   0.2962963
        k(    9) = (   0.1110463   0.5770135   0.0000000), wk =   0.1481481
        k(   10) = (   0.2220926   0.3846756   0.0000000), wk =   0.1481481
        k(   11) = (   0.2220926   0.5129008   0.0000000), wk =   0.2962963
        k(   12) = (   0.3331389   0.5770135   0.0000000), wk =   0.0493827

                       cryst. coord.
        k(    1) = (   0.0000000   0.0000000   0.0000000), wk =   0.0246914
        k(    2) = (   0.0000000   0.1111111   0.0000000), wk =   0.1481481
        k(    3) = (   0.0000000   0.2222222   0.0000000), wk =   0.1481481
        k(    4) = (   0.0000000   0.3333333   0.0000000), wk =   0.1481481
        k(    5) = (   0.0000000   0.4444444   0.0000000), wk =   0.1481481
        k(    6) = (   0.1111111   0.1111111   0.0000000), wk =   0.1481481
        k(    7) = (   0.1111111   0.2222222   0.0000000), wk =   0.2962963
        k(    8) = (   0.1111111   0.3333333   0.0000000), wk =   0.2962963
        k(    9) = (   0.1111111   0.4444444   0.0000000), wk =   0.1481481
        k(   10) = (   0.2222222   0.2222222   0.0000000), wk =   0.1481481
        k(   11) = (   0.2222222   0.3333333   0.0000000), wk =   0.2962963
        k(   12) = (   0.3333333   0.3333333   0.0000000), wk =   0.0493827

     Dense  grid:   144065 G-vectors     FFT dimensions: (  45,  45, 162)

     Dynamical RAM for                 wfc:       1.37 MB

     Dynamical RAM for     wfc (w. buffer):      17.85 MB

     Dynamical RAM for           str. fact:       0.55 MB

     Dynamical RAM for           local pot:       0.27 MB

     Dynamical RAM for          nlocal pot:       2.47 MB

     Dynamical RAM for                qrad:       2.87 MB

     Dynamical RAM for          rho,v,vnew:       3.55 MB

     Dynamical RAM for               rhoin:       1.18 MB

     Dynamical RAM for            rho*nmix:       8.79 MB

     Dynamical RAM for           G-vectors:       2.34 MB

     Dynamical RAM for          h,s,v(r/c):       0.07 MB

     Dynamical RAM for          <psi|beta>:       0.01 MB

     Dynamical RAM for                 psi:       2.75 MB

     Dynamical RAM for                hpsi:       2.75 MB

     Dynamical RAM for      wfcinit/wfcrot:       2.76 MB

     Estimated static dynamical RAM per process >      44.15 MB

     Estimated max dynamical RAM per process >      49.72 MB

     Estimated total dynamical RAM >     198.89 MB

     Initial potential from superposition of free atoms

     starting charge   29.99888, renormalised to   30.00000

     negative rho (up, down):  7.095E-06 0.000E+00
     Starting wfcs are   18 randomized atomic wfcs +    2 random wfcs

     total cpu time spent up to now is       80.6 secs

     Self-consistent Calculation

     iteration #  1     ecut=    80.00 Ry     beta= 0.70
     Davidson diagonalization with overlap
     c_bands:  1 eigenvalues not converged
     c_bands:  1 eigenvalues not converged
     c_bands:  1 eigenvalues not converged
     c_bands:  1 eigenvalues not converged
     c_bands:  1 eigenvalues not converged
     c_bands:  1 eigenvalues not converged
     c_bands:  1 eigenvalues not converged
     ethr =  1.00E-06,  avg # of iterations = 19.4

     negative rho (up, down):  1.961E-07 0.000E+00

     total cpu time spent up to now is       85.4 secs

     total energy              =    -363.80493840 Ry
     estimated scf accuracy    <       0.01852311 Ry

     iteration #  2     ecut=    80.00 Ry     beta= 0.70
     Davidson diagonalization with overlap
     ethr =  6.17E-05,  avg # of iterations =  2.6

     total cpu time spent up to now is       86.7 secs

     total energy              =    -363.80620555 Ry
     estimated scf accuracy    <       0.00082086 Ry

     iteration #  3     ecut=    80.00 Ry     beta= 0.70
     Davidson diagonalization with overlap
     ethr =  2.74E-06,  avg # of iterations =  6.4

     total cpu time spent up to now is       88.6 secs

     total energy              =    -363.80631845 Ry
     estimated scf accuracy    <       0.00004572 Ry

     iteration #  4     ecut=    80.00 Ry     beta= 0.70
     Davidson diagonalization with overlap
     ethr =  1.52E-07,  avg # of iterations =  3.2

     total cpu time spent up to now is       90.0 secs

     total energy              =    -363.80632628 Ry
     estimated scf accuracy    <       0.00000611 Ry

     iteration #  5     ecut=    80.00 Ry     beta= 0.70
     Davidson diagonalization with overlap
     ethr =  2.04E-08,  avg # of iterations =  3.7

     total cpu time spent up to now is       91.6 secs

     total energy              =    -363.80632738 Ry
     estimated scf accuracy    <       0.00000338 Ry

     iteration #  6     ecut=    80.00 Ry     beta= 0.70
     Davidson diagonalization with overlap
     ethr =  1.13E-08,  avg # of iterations =  2.2

     total cpu time spent up to now is       92.9 secs

     total energy              =    -363.80632776 Ry
     estimated scf accuracy    <       0.00000708 Ry

     iteration #  7     ecut=    80.00 Ry     beta= 0.70
     Davidson diagonalization with overlap
     ethr =  1.13E-08,  avg # of iterations =  1.8

     total cpu time spent up to now is       94.1 secs

     total energy              =    -363.80632865 Ry
     estimated scf accuracy    <       0.00000001 Ry

     iteration #  8     ecut=    80.00 Ry     beta= 0.70
     Davidson diagonalization with overlap
     ethr =  4.51E-11,  avg # of iterations =  8.4

     total cpu time spent up to now is       96.2 secs

     End of self-consistent calculation

          k = 0.0000 0.0000 0.0000 ( 17913 PWs)   bands (ev):

   -29.4197 -29.4197 -29.3499 -29.3499 -29.3043 -29.2441 -29.2441 -29.2063
   -29.1625 -29.1625 -12.0873  -7.1294  -1.4124  -0.8326  -0.8326   0.7333
     1.9524   1.9524   3.6216   3.6231

     occupation numbers 
     1.0000   1.0000   1.0000   1.0000   1.0000   1.0000   1.0000   1.0000
     1.0000   1.0000   1.0000   1.0000   1.0000   1.0000   1.0000   0.0000
     0.0000   0.0000   0.0000   0.0000

          k = 0.0000 0.1282 0.0000 ( 17945 PWs)   bands (ev):

   -29.4190 -29.4136 -29.3491 -29.3461 -29.3026 -29.2468 -29.2443 -29.2080
   -29.1696 -29.1628 -11.9567  -7.1306  -1.9109  -1.3610  -1.1130   1.2371
     2.0007   2.2167   3.7612   3.8067

     occupation numbers 
     1.0000   1.0000   1.0000   1.0000   1.0000   1.0000   1.0000   1.0000
     1.0000   1.0000   1.0000   1.0000   1.0000   1.0000   1.0000   0.0000
     0.0000   0.0000   0.0000   0.0000

          k = 0.0000 0.2565 0.0000 ( 17965 PWs)   bands (ev):

   -29.4169 -29.3963 -29.3467 -29.3352 -29.2974 -29.2548 -29.2454 -29.2134
   -29.1886 -29.1638 -11.5733  -7.2436  -3.1933  -1.6438  -1.3247   0.6409
     2.5957   2.6508   4.0571   4.2458

     occupation numbers 
     1.0000   1.0000   1.0000   1.0000   1.0000   1.0000   1.0000   1.0000
     1.0000   1.0000   1.0000   1.0000   1.0000   1.0000   1.0000   0.0000
     0.0000   0.0000   0.0000   0.0000

          k = 0.0000 0.3847 0.0000 ( 18015 PWs)   bands (ev):

   -29.4145 -29.3737 -29.3409 -29.3195 -29.2890 -29.2673 -29.2494 -29.2277
   -29.2079 -29.1650 -10.9742  -7.7257  -3.8092  -2.0948  -1.6499   0.4613
     2.2473   2.7241   4.5753   4.6970

     occupation numbers 
     1.0000   1.0000   1.0000   1.0000   1.0000   1.0000   1.0000   1.0000
     1.0000   1.0000   1.0000   1.0000   1.0000   1.0000   1.0000   0.0000
     0.0000   0.0000   0.0000   0.0000

          k = 0.0000 0.5129 0.0000 ( 18028 PWs)   bands (ev):

   -29.4128 -29.3612 -29.3237 -29.3014 -29.2849 -29.2833 -29.2558 -29.2495
   -29.2140 -29.1658 -10.3201  -8.4441  -3.7914  -2.3406  -2.1752   0.7320
     1.7222   2.7130   4.3439   5.6186

     occupation numbers 
     1.0000   1.0000   1.0000   1.0000   1.0000   1.0000   1.0000   1.0000
     1.0000   1.0000   1.0000   1.0000   1.0000   1.0000   1.0000   0.0000
     0.0000   0.0000   0.0000   0.0000

          k = 0.1110 0.1923 0.0000 ( 17981 PWs)   bands (ev):

   -29.4176 -29.4017 -29.3470 -29.3394 -29.2990 -29.2526 -29.2444 -29.2115
   -29.1826 -29.1636 -11.6993  -7.1853  -2.8052  -1.7714  -1.2919   1.4065
     1.8097   2.8354   4.0240   4.0835

     occupation numbers 
     1.0000   1.0000   1.0000   1.0000   1.0000   1.0000   1.0000   1.0000
     1.0000   1.0000   1.0000   1.0000   1.0000   1.0000   1.0000   0.0000
     0.0000   0.0000   0.0000   0.0000

          k = 0.1110 0.3206 0.0000 ( 18000 PWs)   bands (ev):

   -29.4155 -29.3804 -29.3430 -29.3277 -29.2913 -29.2639 -29.2455 -29.2206
   -29.2031 -29.1650 -11.2034  -7.4856  -3.5448  -2.4956  -1.3747   1.0290
     2.2016   2.7514   4.4161   4.5836

     occupation numbers 
     1.0000   1.0000   1.0000   1.0000   1.0000   1.0000   1.0000   1.0000
     1.0000   1.0000   1.0000   1.0000   1.0000   1.0000   1.0000   0.0000
     0.0000   0.0000   0.0000   0.0000

          k = 0.1110 0.4488 0.0000 ( 18011 PWs)   bands (ev):

   -29.4135 -29.3601 -29.3325 -29.3123 -29.2831 -29.2786 -29.2497 -29.2423
   -29.2146 -29.1663 -10.5385  -8.1486  -3.7879  -2.8199  -1.8386   1.0723
     2.0193   2.4786   4.6853   5.2617

     occupation numbers 
     1.0000   1.0000   1.0000   1.0000   1.0000   1.0000   1.0000   1.0000
     1.0000   1.0000   1.0000   1.0000   1.0000   1.0000   1.0000   0.0000
     0.0000   0.0000   0.0000   0.0000

          k = 0.1110 0.5770 0.0000 ( 18009 PWs)   bands (ev):

   -29.4127 -29.3547 -29.3157 -29.2996 -29.2949 -29.2810 -29.2577 -29.2513
   -29.2174 -29.1668 -10.0772  -8.6533  -3.8005  -2.7403  -2.2696   1.4625
     1.5108   2.4920   4.4478   6.3076

     occupation numbers 
     1.0000   1.0000   1.0000   1.0000   1.0000   1.0000   1.0000   1.0000
     1.0000   1.0000   1.0000   1.0000   1.0000   1.0000   1.0000   0.0000
     0.0000   0.0000   0.0000   0.0000

          k = 0.2221 0.3847 0.0000 ( 18025 PWs)   bands (ev):

   -29.4140 -29.3572 -29.3368 -29.3181 -29.2812 -29.2793 -29.2444 -29.2394
   -29.2161 -29.1669 -10.6222  -8.0041  -3.4922  -3.4646  -1.6519   1.4735
     1.6595   2.9965   4.9647   5.1966

     occupation numbers 
     1.0000   1.0000   1.0000   1.0000   1.0000   1.0000   1.0000   1.0000
     1.0000   1.0000   1.0000   1.0000   1.0000   1.0000   1.0000   0.0000
     0.0000   0.0000   0.0000   0.0000

          k = 0.2221 0.5129 0.0000 ( 18033 PWs)   bands (ev):

   -29.4130 -29.3413 -29.3228 -29.3041 -29.2980 -29.2740 -29.2630 -29.2433
   -29.2236 -29.1684  -9.9499  -8.6825  -4.0370  -3.0498  -2.1677   1.0168
     2.2288   2.7944   5.1984   6.0729

     occupation numbers 
     1.0000   1.0000   1.0000   1.0000   1.0000   1.0000   1.0000   1.0000
     1.0000   1.0000   1.0000   1.0000   1.0000   1.0000   1.0000   0.0000
     0.0000   0.0000   0.0000   0.0000

          k = 0.3331 0.5770 0.0000 ( 18051 PWs)   bands (ev):

   -29.4127 -29.3205 -29.3204 -29.3193 -29.2854 -29.2854 -29.2698 -29.2340
   -29.2340 -29.1694  -9.2987  -9.2986  -4.3176  -2.6070  -2.6070   0.6902
     2.7501   2.7501   5.8132   6.4887

     occupation numbers 
     1.0000   1.0000   1.0000   1.0000   1.0000   1.0000   1.0000   1.0000
     1.0000   1.0000   1.0000   1.0000   1.0000   1.0000   1.0000   0.0000
     0.0000   0.0000   0.0000   0.0000

     highest occupied, lowest unoccupied level (ev):    -0.8326    0.4613

!    total energy              =    -363.80632870 Ry
     estimated scf accuracy    <          3.6E-09 Ry

     The total energy is the sum of the following terms:
     one-electron contribution =    -770.25510734 Ry
     hartree contribution      =     389.35293552 Ry
     xc contribution           =     -90.87426568 Ry
     ewald contribution        =     107.97010880 Ry

     convergence has been achieved in   8 iterations

     Forces acting on atoms (cartesian axes, Ry/au):

     atom    1 type  1   force =     0.00000000    0.00000000    0.00006334
     atom    2 type  1   force =    -0.00000000   -0.00000000   -0.00006334
     The non-local contrib.  to forces
     atom    1 type  1   force =    -0.00000000   -0.00000000    0.61093958
     atom    2 type  1   force =    -0.00000000   -0.00000000   -0.61107474
     The ionic contribution  to forces
     atom    1 type  1   force =    -0.00000001    0.00000001  -34.59796324
     atom    2 type  1   force =     0.00000001   -0.00000001   34.59796324
     The local contribution  to forces
     atom    1 type  1   force =     0.00000000   -0.00000000   33.99152677
     atom    2 type  1   force =     0.00000044   -0.00000025  -33.99100152
     The core correction contribution to forces
     atom    1 type  1   force =     0.00000000    0.00000000   -0.00439087
     atom    2 type  1   force =     0.00000002   -0.00000001    0.00440417
     The Hubbard contrib.    to forces
     atom    1 type  1   force =     0.00000000    0.00000000    0.00000000
     atom    2 type  1   force =     0.00000000    0.00000000    0.00000000
     The SCF correction term to forces
     atom    1 type  1   force =    -0.00000000    0.00000000   -0.00000000
     atom    2 type  1   force =     0.00000000   -0.00000000   -0.00041740

     Total force =     0.000063     Total SCF correction =     0.000417
     SCF correction compared to forces is large: reduce conv_thr to get better values


     Computing stress (Cartesian axis) and pressure

          total   stress  (Ry/bohr**3)                   (kbar)     P=       -0.06
   0.00000023   0.00000000  -0.00000000            0.03        0.00       -0.00
  -0.00000000   0.00000023  -0.00000000           -0.00        0.03       -0.00
   0.00000000   0.00000000  -0.00000172            0.00        0.00       -0.25

     kinetic stress (kbar)  13996.36     -0.00      0.00
                                0.00  13996.36      0.00
                                0.00      0.00  14028.09

     local   stress (kbar) -62509.00      0.00     -0.00
                                0.00 -62509.00      0.00
                               -0.00      0.00  57600.82

     nonloc. stress (kbar)  -6043.96     -0.00     -0.00
                               -0.00  -6043.96     -0.00
                               -0.00     -0.00  -6028.03

     hartree stress (kbar)  32176.74     -0.00      0.00
                               -0.00  32176.74     -0.00
                                0.00     -0.00 -25907.47

     exc-cor stress (kbar)   3403.04     -0.00      0.00
                               -0.00   3403.04     -0.00
                                0.00     -0.00   3401.83

     corecor stress (kbar)  -5267.58     -0.00      0.00
                               -0.00  -5267.58     -0.00
                                0.00     -0.00  -5267.96

     ewald   stress (kbar)  24244.43     -0.00      0.00
                               -0.00  24244.43     -0.00
                                0.00     -0.00 -37827.53

     hubbard stress (kbar)      0.00      0.00      0.00
                                0.00      0.00      0.00
                                0.00      0.00      0.00

     DFT-D   stress (kbar)      0.00      0.00      0.00
                                0.00      0.00      0.00
                                0.00      0.00      0.00

     XDM     stress (kbar)      0.00      0.00      0.00
                                0.00      0.00      0.00
                                0.00      0.00      0.00

     dft-nl  stress (kbar)      0.00      0.00      0.00
                                0.00      0.00      0.00
                                0.00      0.00      0.00

     TS-vdW  stress (kbar)      0.00      0.00      0.00
                                0.00      0.00      0.00
                                0.00      0.00      0.00



     Writing output data file ./tmp/Sb.save/

     init_run     :      1.95s CPU      2.01s WALL (       2 calls)
     electrons    :     72.35s CPU     76.76s WALL (       8 calls)
     update_pot   :      4.47s CPU      4.50s WALL (       6 calls)
     forces       :      3.80s CPU      3.95s WALL (       8 calls)
     stress       :     10.56s CPU     10.79s WALL (       8 calls)

     Called by init_run:
     wfcinit      :      0.75s CPU      0.80s WALL (       2 calls)
     wfcinit:atom :      0.01s CPU      0.02s WALL (      24 calls)
     wfcinit:wfcr :      0.72s CPU      0.76s WALL (      24 calls)
     potinit      :      0.40s CPU      0.41s WALL (       2 calls)
     hinit0       :      0.75s CPU      0.75s WALL (       2 calls)

     Called by electrons:
     c_bands      :     61.21s CPU     65.37s WALL (      54 calls)
     sum_band     :      9.90s CPU     10.04s WALL (      54 calls)
     v_of_rho     :      1.21s CPU      1.29s WALL (      57 calls)
     v_h          :      0.09s CPU      0.10s WALL (      57 calls)
     v_xc         :      1.44s CPU      1.53s WALL (      73 calls)
     mix_rho      :      0.15s CPU      0.18s WALL (      54 calls)

     Called by c_bands:
     init_us_2    :      0.82s CPU      0.93s WALL (    1512 calls)
     cegterg      :     59.42s CPU     63.49s WALL (     648 calls)

     Called by sum_band:
     sum_band:wei :      0.00s CPU      0.00s WALL (      54 calls)
     sum_band:loo :      9.72s CPU      9.85s WALL (      54 calls)
     sum_band:buf :      0.09s CPU      0.09s WALL (     648 calls)
     sum_band:ini :      0.36s CPU      0.42s WALL (     648 calls)

     Called by *egterg:
     cdiaghg      :      0.67s CPU      0.82s WALL (    2633 calls)
     cegterg:over :      3.89s CPU      4.69s WALL (    2117 calls)
     cegterg:upda :      1.95s CPU      2.55s WALL (    2117 calls)
     cegterg:last :      2.39s CPU      2.82s WALL (    1380 calls)
     h_psi        :     49.40s CPU     51.08s WALL (    2789 calls)
     g_psi        :      0.12s CPU      0.13s WALL (    2117 calls)

     Called by h_psi:
     h_psi:calbec :      3.07s CPU      3.58s WALL (    2789 calls)
     vloc_psi     :     43.90s CPU     44.38s WALL (    2789 calls)
     add_vuspsi   :      2.24s CPU      2.85s WALL (    2789 calls)

     General routines
     calbec       :      3.74s CPU      4.38s WALL (    3269 calls)
     fft          :      1.35s CPU      1.37s WALL (     773 calls)
     ffts         :      0.05s CPU      0.05s WALL (      54 calls)
     fftw         :     49.61s CPU     50.14s WALL (   81154 calls)

     Parallel routines
     fft_scatt_xy :      4.28s CPU      4.37s WALL (   81981 calls)
     fft_scatt_yz :      4.60s CPU      4.68s WALL (   81981 calls)

     PWSCF        :   1m33.22s CPU   1m38.15s WALL


   This run was terminated on:  15:40: 1  29Apr2026            

=------------------------------------------------------------------------------=
   JOB DONE.
=------------------------------------------------------------------------------=
Note: The following floating-point exceptions are signalling: IEEE_INVALID_FLAG IEEE_DIVIDE_BY_ZERO IEEE_UNDERFLOW_FLAG
