
     Program PWSCF v.6.7MaX starts on 29Apr2026 at 14:53:24 

     This program is part of the open-source Quantum ESPRESSO suite
     for quantum simulation of materials; please cite
         "P. Giannozzi et al., J. Phys.:Condens. Matter 21 395502 (2009);
         "P. Giannozzi et al., J. Phys.:Condens. Matter 29 465901 (2017);
          URL http://www.quantum-espresso.org", 
     in publications or presentations arising from this work. More details at
     http://www.quantum-espresso.org/quote

     Parallel version (MPI & OpenMP), running on       4 processor cores
     Number of MPI processes:                 4
     Threads/MPI process:                     1

     MPI processes distributed on     1 nodes
     R & G space division:  proc/nbgrp/npool/nimage =       4
     Waiting for input...
     Reading input from standard input

     Current dimensions of program PWSCF are:
     Max number of different atomic species (ntypx) = 10
     Max number of k-points (npk) =  40000
     Max angular momentum in pseudopotentials (lmaxx) =  3

     File ./tmp/Sb.update deleted, as requested

     File ./tmp/Sb.bfgs deleted, as requested
     Message from routine read_pp_mesh:
     mesh size missing, using the one in header

     Subspace diagonalization in iterative solution of the eigenvalue problem:
     a serial algorithm will be used


     Parallelization info
     --------------------
     sticks:   dense  smooth     PW     G-vecs:    dense   smooth      PW
     Min         315     315     90                27149    27149    4088
     Max         316     316     91                27164    27164    4095
     Sum        1261    1261    361               108621   108621   16365



     bravais-lattice index     =            4
     lattice parameter (alat)  =       7.5589  a.u.
     unit-cell volume          =    1122.0920 (a.u.)^3
     number of atoms/cell      =            2
     number of atomic types    =            1
     number of electrons       =        30.00
     number of Kohn-Sham states=           20
     kinetic-energy cutoff     =      80.0000  Ry
     charge density cutoff     =     320.0000  Ry
     scf convergence threshold =      1.0E-06
     mixing beta               =       0.7000
     number of iterations used =            8  plain     mixing
     energy convergence thresh.=      1.0E-04
     force convergence thresh. =      1.0E-03
     press convergence thresh. =      1.0E-03
     Exchange-correlation= SLA  PW   NOGX NOGC
                           (   1   4   0   0   0   0   0)
     nstep                     =           50


     celldm(1)=   7.558904  celldm(2)=   0.000000  celldm(3)=   3.000000
     celldm(4)=   0.000000  celldm(5)=   0.000000  celldm(6)=   0.000000

     crystal axes: (cart. coord. in units of alat)
               a(1) = (   1.000000   0.000000   0.000000 )  
               a(2) = (  -0.500000   0.866025   0.000000 )  
               a(3) = (   0.000000   0.000000   3.000000 )  

     reciprocal axes: (cart. coord. in units 2 pi/alat)
               b(1) = (  1.000000  0.577350 -0.000000 )  
               b(2) = (  0.000000  1.154701  0.000000 )  
               b(3) = (  0.000000 -0.000000  0.333333 )  


     PseudoPot. # 1 for Sb read from file:
     /Users/cdhogan/Research/Codes/espresso/PSEUDO/DOJO-LDA-NC-SR-04-STD/Sb.upf
     MD5 check sum: 7f611d33cada28a8ba2468ea7ddc75dd
     Pseudo is Norm-conserving + core correction, Zval = 15.0
     Generated using ONCVPSP code by D. R. Hamann
     Using radial grid of 1416 points,  6 beta functions with: 
                l(1) =   0
                l(2) =   0
                l(3) =   1
                l(4) =   1
                l(5) =   2
                l(6) =   2

     atomic species   valence    mass     pseudopotential
        Sb            15.00    12.01100     Sb( 1.00)

      6 Sym. Ops. (no inversion) found


                                    s                        frac. trans.

      isym =  1     identity                                     

 cryst.   s( 1) = (     1          0          0      )
                  (     0          1          0      )
                  (     0          0          1      )

 cart.    s( 1) = (  1.0000000  0.0000000  0.0000000 )
                  (  0.0000000  1.0000000  0.0000000 )
                  (  0.0000000  0.0000000  1.0000000 )


      isym =  2     120 deg rotation - cryst. axis [0,0,1]       

 cryst.   s( 2) = (     0          1          0      )
                  (    -1         -1          0      )
                  (     0          0          1      )

 cart.    s( 2) = ( -0.5000000 -0.8660254  0.0000000 )
                  (  0.8660254 -0.5000000  0.0000000 )
                  (  0.0000000  0.0000000  1.0000000 )


      isym =  3     120 deg rotation - cryst. axis [0,0,-1]      

 cryst.   s( 3) = (    -1         -1          0      )
                  (     1          0          0      )
                  (     0          0          1      )

 cart.    s( 3) = ( -0.5000000  0.8660254  0.0000000 )
                  ( -0.8660254 -0.5000000  0.0000000 )
                  (  0.0000000  0.0000000  1.0000000 )


      isym =  4     inv. 180 deg rotation - cart. axis [1,0,0]   

 cryst.   s( 4) = (    -1          0          0      )
                  (     1          1          0      )
                  (     0          0          1      )

 cart.    s( 4) = ( -1.0000000  0.0000000  0.0000000 )
                  (  0.0000000  1.0000000  0.0000000 )
                  (  0.0000000  0.0000000  1.0000000 )


      isym =  5     inv. 180 deg rotation - cryst. axis [0,1,0]  

 cryst.   s( 5) = (     1          1          0      )
                  (     0         -1          0      )
                  (     0          0          1      )

 cart.    s( 5) = (  0.5000000  0.8660254  0.0000000 )
                  (  0.8660254 -0.5000000  0.0000000 )
                  (  0.0000000  0.0000000  1.0000000 )


      isym =  6     inv. 180 deg rotation - cryst. axis [1,1,0]  

 cryst.   s( 6) = (     0         -1          0      )
                  (    -1          0          0      )
                  (     0          0          1      )

 cart.    s( 6) = (  0.5000000 -0.8660254  0.0000000 )
                  ( -0.8660254 -0.5000000  0.0000000 )
                  (  0.0000000  0.0000000  1.0000000 )


     point group C_3v (3m)  
     there are  3 classes
     the character table:

       E     2C3   3s_v 
A_1    1.00  1.00  1.00
A_2    1.00  1.00 -1.00
E      2.00 -1.00  0.00

     the symmetry operations in each class and the name of the first element:

     E        1
          identity                                               
     2C3      2    3
          120 deg rotation - cryst. axis [0,0,1]                 
     3s_v     4    5    6
          inv. 180 deg rotation - cart. axis [1,0,0]             

   Cartesian axes

     site n.     atom                  positions (alat units)
         1           Sb  tau(   1) = (   0.0000000   0.0000000   1.5000000  )
         2           Sb  tau(   2) = (  -0.0000000   0.5773503   1.6500000  )

   Crystallographic axes

     site n.     atom                  positions (cryst. coord.)
         1           Sb  tau(   1) = (  0.0000000  0.0000000  0.5000000  )
         2           Sb  tau(   2) = (  0.3333333  0.6666667  0.5500000  )

     number of k points=    12
                       cart. coord. in units 2pi/alat
        k(    1) = (   0.0000000   0.0000000   0.0000000), wk =   0.0246914
        k(    2) = (   0.0000000   0.1283001   0.0000000), wk =   0.1481481
        k(    3) = (   0.0000000   0.2566001   0.0000000), wk =   0.1481481
        k(    4) = (   0.0000000   0.3849002   0.0000000), wk =   0.1481481
        k(    5) = (   0.0000000   0.5132002   0.0000000), wk =   0.1481481
        k(    6) = (   0.1111111   0.1924501   0.0000000), wk =   0.1481481
        k(    7) = (   0.1111111   0.3207501   0.0000000), wk =   0.2962963
        k(    8) = (   0.1111111   0.4490502   0.0000000), wk =   0.2962963
        k(    9) = (   0.1111111   0.5773503   0.0000000), wk =   0.1481481
        k(   10) = (   0.2222222   0.3849002   0.0000000), wk =   0.1481481
        k(   11) = (   0.2222222   0.5132002   0.0000000), wk =   0.2962963
        k(   12) = (   0.3333333   0.5773503   0.0000000), wk =   0.0493827

                       cryst. coord.
        k(    1) = (   0.0000000   0.0000000   0.0000000), wk =   0.0246914
        k(    2) = (   0.0000000   0.1111111   0.0000000), wk =   0.1481481
        k(    3) = (   0.0000000   0.2222222   0.0000000), wk =   0.1481481
        k(    4) = (   0.0000000   0.3333333   0.0000000), wk =   0.1481481
        k(    5) = (   0.0000000   0.4444444   0.0000000), wk =   0.1481481
        k(    6) = (   0.1111111   0.1111111   0.0000000), wk =   0.1481481
        k(    7) = (   0.1111111   0.2222222   0.0000000), wk =   0.2962963
        k(    8) = (   0.1111111   0.3333333   0.0000000), wk =   0.2962963
        k(    9) = (   0.1111111   0.4444444   0.0000000), wk =   0.1481481
        k(   10) = (   0.2222222   0.2222222   0.0000000), wk =   0.1481481
        k(   11) = (   0.2222222   0.3333333   0.0000000), wk =   0.2962963
        k(   12) = (   0.3333333   0.3333333   0.0000000), wk =   0.0493827

     Dense  grid:   108621 G-vectors     FFT dimensions: (  45,  45, 135)

     Dynamical RAM for                 wfc:       1.03 MB

     Dynamical RAM for     wfc (w. buffer):      13.45 MB

     Dynamical RAM for           str. fact:       0.41 MB

     Dynamical RAM for           local pot:       0.00 MB

     Dynamical RAM for          nlocal pot:       1.86 MB

     Dynamical RAM for                qrad:       2.87 MB

     Dynamical RAM for          rho,v,vnew:       2.82 MB

     Dynamical RAM for               rhoin:       0.94 MB

     Dynamical RAM for            rho*nmix:       6.63 MB

     Dynamical RAM for           G-vectors:       1.76 MB

     Dynamical RAM for          h,s,v(r/c):       0.07 MB

     Dynamical RAM for          <psi|beta>:       0.01 MB

     Dynamical RAM for                 psi:       2.07 MB

     Dynamical RAM for                hpsi:       2.07 MB

     Dynamical RAM for      wfcinit/wfcrot:       2.08 MB

     Estimated static dynamical RAM per process >      34.20 MB

     Estimated max dynamical RAM per process >      38.42 MB

     Estimated total dynamical RAM >     153.68 MB

     Initial potential from superposition of free atoms

     starting charge   29.99907, renormalised to   30.00000

     negative rho (up, down):  2.790E-06 0.000E+00
     Starting wfcs are   18 randomized atomic wfcs +    2 random wfcs

     total cpu time spent up to now is        0.8 secs

     Self-consistent Calculation

     iteration #  1     ecut=    80.00 Ry     beta= 0.70
     Davidson diagonalization with overlap
     ethr =  1.00E-02,  avg # of iterations =  6.1

     Threshold (ethr) on eigenvalues was too large:
     Diagonalizing with lowered threshold

     Davidson diagonalization with overlap
     ethr =  9.47E-05,  avg # of iterations =  5.2

     total cpu time spent up to now is        3.1 secs

     total energy              =    -362.59012758 Ry
     estimated scf accuracy    <       0.02941842 Ry

     iteration #  2     ecut=    80.00 Ry     beta= 0.70
     Davidson diagonalization with overlap
     ethr =  9.81E-05,  avg # of iterations =  2.7

     total cpu time spent up to now is        4.0 secs

     total energy              =    -362.59291487 Ry
     estimated scf accuracy    <       0.00060602 Ry

     iteration #  3     ecut=    80.00 Ry     beta= 0.70
     Davidson diagonalization with overlap
     ethr =  2.02E-06,  avg # of iterations =  7.1

     total cpu time spent up to now is        5.5 secs

     total energy              =    -362.59310167 Ry
     estimated scf accuracy    <       0.00007288 Ry

     iteration #  4     ecut=    80.00 Ry     beta= 0.70
     Davidson diagonalization with overlap
     ethr =  2.43E-07,  avg # of iterations =  3.1

     total cpu time spent up to now is        6.5 secs

     total energy              =    -362.59311515 Ry
     estimated scf accuracy    <       0.00000541 Ry

     iteration #  5     ecut=    80.00 Ry     beta= 0.70
     Davidson diagonalization with overlap
     ethr =  1.80E-08,  avg # of iterations =  3.1

     total cpu time spent up to now is        7.6 secs

     End of self-consistent calculation

          k = 0.0000 0.0000 0.0000 ( 13505 PWs)   bands (ev):

   -29.3608 -29.3608 -29.0768 -29.0768 -28.8771 -28.5386 -28.5111 -28.5111
   -28.4841 -28.4841 -13.8697  -4.3954  -2.0978  -2.0978  -0.0303   2.2150
     2.7056   2.7056   5.2060   5.2437

     occupation numbers 
     1.0000   1.0000   1.0000   1.0000   1.0000   1.0000   1.0000   1.0000
     1.0000   1.0000   1.0000   1.0000   1.0000   1.0000   1.0000   0.0000
     0.0000   0.0000   0.0000   0.0000

          k = 0.0000 0.1283 0.0000 ( 13575 PWs)   bands (ev):

   -29.3895 -29.3764 -29.0468 -29.0422 -28.9070 -28.5723 -28.5409 -28.5032
   -28.4554 -28.4418 -13.7167  -4.4745  -3.3424  -2.4391   1.0004   2.2365
     2.7910   3.3019   5.1733   5.3494

     occupation numbers 
     1.0000   1.0000   1.0000   1.0000   1.0000   1.0000   1.0000   1.0000
     1.0000   1.0000   1.0000   1.0000   1.0000   1.0000   1.0000   0.0000
     0.0000   0.0000   0.0000   0.0000

          k = 0.0000 0.2566 0.0000 ( 13535 PWs)   bands (ev):

   -29.4433 -29.4034 -28.9811 -28.9762 -28.9758 -28.6228 -28.5710 -28.4635
   -28.4259 -28.3977 -13.2618  -5.9347  -3.5416  -3.1045   0.9220   2.0902
     4.1898   4.6832   5.0162   5.7659

     occupation numbers 
     1.0000   1.0000   1.0000   1.0000   1.0000   1.0000   1.0000   1.0000
     1.0000   1.0000   1.0000   1.0000   1.0000   1.0000   1.0000   0.0000
     0.0000   0.0000   0.0000   0.0000

          k = 0.0000 0.3849 0.0000 ( 13540 PWs)   bands (ev):

   -29.4885 -29.4203 -29.0499 -28.9223 -28.9149 -28.6611 -28.5825 -28.4219
   -28.4090 -28.3736 -12.5305  -7.7855  -3.6812  -2.9451   0.4292   1.3400
     4.5595   6.1115   6.3090   6.8302

     occupation numbers 
     1.0000   1.0000   1.0000   1.0000   1.0000   1.0000   1.0000   1.0000
     1.0000   1.0000   1.0000   1.0000   1.0000   1.0000   1.0000   0.0000
     0.0000   0.0000   0.0000   0.0000

          k = 0.0000 0.5132 0.0000 ( 13546 PWs)   bands (ev):

   -29.5129 -29.4250 -29.0976 -28.8972 -28.8738 -28.6819 -28.5798 -28.4033
   -28.3899 -28.3713 -11.6843  -9.2267  -3.9984  -2.2761  -0.0007   0.5678
     5.1969   6.4435   6.6632   7.1995

     occupation numbers 
     1.0000   1.0000   1.0000   1.0000   1.0000   1.0000   1.0000   1.0000
     1.0000   1.0000   1.0000   1.0000   1.0000   1.0000   1.0000   0.0000
     0.0000   0.0000   0.0000   0.0000

          k = 0.1111 0.1925 0.0000 ( 13589 PWs)   bands (ev):

   -29.4388 -29.3857 -29.0009 -28.9928 -28.9553 -28.6264 -28.5418 -28.4884
   -28.4219 -28.4132 -13.4125  -5.3761  -3.6109  -3.1309   1.8383   2.1103
     2.6893   4.8403   4.8924   5.6320

     occupation numbers 
     1.0000   1.0000   1.0000   1.0000   1.0000   1.0000   1.0000   1.0000
     1.0000   1.0000   1.0000   1.0000   1.0000   1.0000   1.0000   0.0000
     0.0000   0.0000   0.0000   0.0000

          k = 0.1111 0.3208 0.0000 ( 13558 PWs)   bands (ev):

   -29.4999 -29.3857 -29.0246 -28.9371 -28.9354 -28.6808 -28.5607 -28.4416
   -28.4025 -28.3810 -12.8147  -7.0417  -3.9676  -3.1456   1.3720   1.9477
     3.9943   4.7498   5.6611   6.4315

     occupation numbers 
     1.0000   1.0000   1.0000   1.0000   1.0000   1.0000   1.0000   1.0000
     1.0000   1.0000   1.0000   1.0000   1.0000   1.0000   1.0000   0.0000
     0.0000   0.0000   0.0000   0.0000

          k = 0.1111 0.4491 0.0000 ( 13552 PWs)   bands (ev):

   -29.5438 -29.3753 -29.0872 -28.9006 -28.8808 -28.7118 -28.5779 -28.4005
   -28.3945 -28.3628 -11.9812  -8.6461  -4.5136  -2.4257   0.4452   1.5534
     4.8731   5.4017   6.4864   7.2415

     occupation numbers 
     1.0000   1.0000   1.0000   1.0000   1.0000   1.0000   1.0000   1.0000
     1.0000   1.0000   1.0000   1.0000   1.0000   1.0000   1.0000   0.0000
     0.0000   0.0000   0.0000   0.0000

          k = 0.1111 0.5774 0.0000 ( 13554 PWs)   bands (ev):

   -29.5595 -29.3676 -29.1141 -28.8886 -28.8608 -28.7190 -28.5852 -28.3946
   -28.3818 -28.3585 -11.3605  -9.5388  -4.6995  -1.9264  -0.1609   1.3988
     4.9384   6.1280   6.4300   7.8639

     occupation numbers 
     1.0000   1.0000   1.0000   1.0000   1.0000   1.0000   1.0000   1.0000
     1.0000   1.0000   1.0000   1.0000   1.0000   1.0000   1.0000   0.0000
     0.0000   0.0000   0.0000   0.0000

          k = 0.2222 0.3849 0.0000 ( 13567 PWs)   bands (ev):

   -29.5635 -29.3404 -29.0833 -28.9012 -28.8794 -28.7459 -28.5734 -28.4044
   -28.3892 -28.3556 -12.0939  -8.2938  -4.9964  -2.4901   0.7346   3.3926
     3.9424   4.7773   5.1536   7.1444

     occupation numbers 
     1.0000   1.0000   1.0000   1.0000   1.0000   1.0000   1.0000   1.0000
     1.0000   1.0000   1.0000   1.0000   1.0000   1.0000   1.0000   0.0000
     0.0000   0.0000   0.0000   0.0000

          k = 0.2222 0.5132 0.0000 ( 13565 PWs)   bands (ev):

   -29.6007 -29.2921 -29.1370 -28.8764 -28.8438 -28.7809 -28.5958 -28.3881
   -28.3841 -28.3289 -11.2176  -9.4788  -5.5586  -1.7125  -0.1673   3.4555
     4.1711   5.7992   6.1879   7.2294

     occupation numbers 
     1.0000   1.0000   1.0000   1.0000   1.0000   1.0000   1.0000   1.0000
     1.0000   1.0000   1.0000   1.0000   1.0000   1.0000   1.0000   0.0000
     0.0000   0.0000   0.0000   0.0000

          k = 0.3333 0.5774 0.0000 ( 13635 PWs)   bands (ev):

   -29.6221 -29.2065 -29.2065 -28.8522 -28.8255 -28.8255 -28.6092 -28.3837
   -28.3837 -28.3099 -10.3419 -10.3419  -5.9835  -0.9202  -0.9201   3.7741
     5.6502   5.6504   6.5259   6.8391

     occupation numbers 
     1.0000   1.0000   1.0000   1.0000   1.0000   1.0000   1.0000   1.0000
     1.0000   1.0000   1.0000   1.0000   1.0000   1.0000   1.0000   0.0000
     0.0000   0.0000   0.0000   0.0000

     highest occupied, lowest unoccupied level (ev):     1.8383    0.5678

!    total energy              =    -362.59311625 Ry
     estimated scf accuracy    <       0.00000099 Ry

     The total energy is the sum of the following terms:
     one-electron contribution =    -709.95950557 Ry
     hartree contribution      =     359.82909496 Ry
     xc contribution           =     -89.99848735 Ry
     ewald contribution        =      77.53578170 Ry

     convergence has been achieved in   5 iterations

     Forces acting on atoms (cartesian axes, Ry/au):

     atom    1 type  1   force =     0.00000000    0.00000000   -0.20916576
     atom    2 type  1   force =     0.00000000    0.00000000    0.20916576
     The non-local contrib.  to forces
     atom    1 type  1   force =     0.00000000    0.00000000    0.39257832
     atom    2 type  1   force =     0.00000000   -0.00000000   -0.39261976
     The ionic contribution  to forces
     atom    1 type  1   force =    -0.00000004    0.00000002  -19.81617935
     atom    2 type  1   force =     0.00000004   -0.00000002   19.81617935
     The local contribution  to forces
     atom    1 type  1   force =    -0.00000000   -0.00000000   19.19965278
     atom    2 type  1   force =     0.00000040   -0.00000023  -19.19883849
     The core correction contribution to forces
     atom    1 type  1   force =     0.00000000   -0.00000000    0.01215579
     atom    2 type  1   force =     0.00000002   -0.00000001   -0.01214076
     The Hubbard contrib.    to forces
     atom    1 type  1   force =     0.00000000    0.00000000    0.00000000
     atom    2 type  1   force =     0.00000000    0.00000000    0.00000000
     The SCF correction term to forces
     atom    1 type  1   force =     0.00000000   -0.00000000    0.00000000
     atom    2 type  1   force =    -0.00000000    0.00000000   -0.00342039

     Total force =     0.209166     Total SCF correction =     0.003420


     Computing stress (Cartesian axis) and pressure

          total   stress  (Ry/bohr**3)                   (kbar)     P=      147.67
   0.00140506   0.00000000   0.00000000          206.69        0.00        0.00
   0.00000000   0.00140506   0.00000000            0.00      206.69        0.00
   0.00000000   0.00000000   0.00020135            0.00        0.00       29.62

     kinetic stress (kbar)  18548.31     -0.00      0.00
                               -0.00  18548.31      0.00
                                0.00      0.00  18709.56

     local   stress (kbar) -80261.40      0.00     -0.00
                                0.00 -80261.40      0.00
                               -0.00      0.00  78755.52

     nonloc. stress (kbar)  -7876.50     -0.00      0.00
                                0.00  -7876.50      0.00
                                0.00      0.00  -7907.18

     hartree stress (kbar)  40511.81     -0.00      0.00
                               -0.00  40511.81     -0.00
                                0.00     -0.00 -33850.41

     exc-cor stress (kbar)   4462.51      0.00      0.00
                                0.00   4462.51      0.00
                                0.00      0.00   4462.51

     corecor stress (kbar)  -6887.44      0.00      0.00
                                0.00  -6887.44     -0.00
                                0.00     -0.00  -6886.43

     ewald   stress (kbar)  31709.41     -0.00      0.00
                               -0.00  31709.41     -0.00
                                0.00     -0.00 -53253.95

     hubbard stress (kbar)      0.00      0.00      0.00
                                0.00      0.00      0.00
                                0.00      0.00      0.00

     DFT-D   stress (kbar)      0.00      0.00      0.00
                                0.00      0.00      0.00
                                0.00      0.00      0.00

     XDM     stress (kbar)      0.00      0.00      0.00
                                0.00      0.00      0.00
                                0.00      0.00      0.00

     dft-nl  stress (kbar)      0.00      0.00      0.00
                                0.00      0.00      0.00
                                0.00      0.00      0.00

     TS-vdW  stress (kbar)      0.00      0.00      0.00
                                0.00      0.00      0.00
                                0.00      0.00      0.00



     BFGS Geometry Optimization
     Energy error            =      0.0E+00
     Gradient error          =      2.1E-01
     Cell gradient error     =      1.4E-03


     number of scf cycles    =   1
     number of bfgs steps    =   0

     enthalpy new            =    -362.5931162547 Ry

     new trust radius        =       0.2353316406 bohr
     new conv_thr            =       0.0000010000 Ry

     new unit-cell volume =   1202.30706 a.u.^3 (   178.16353 Ang^3 )
     density =      0.22389 g/cm^3

CELL_PARAMETERS (alat=  7.55890450)
   1.035126599   0.000000000   0.000000000
  -0.517563299   0.896445931   0.000000000
   0.000000000   0.000000000   3.000000000

ATOMIC_POSITIONS (crystal)
Sb            0.0000000000        0.0000000000        0.5000000000    0   0   0
Sb            0.3333333330        0.6666666670        0.5592238126



     Writing output data file ./tmp/Sb.save/
     NEW-OLD atomic charge density approx. for the potential

     negative rho (up, down):  2.429E-07 0.000E+00
     extrapolated charge   32.00147, renormalised to   30.00000

     total cpu time spent up to now is        9.4 secs

     Self-consistent Calculation

     iteration #  1     ecut=    80.00 Ry     beta= 0.70
     Davidson diagonalization with overlap
     c_bands:  1 eigenvalues not converged
     c_bands:  4 eigenvalues not converged
     c_bands:  1 eigenvalues not converged
     c_bands:  1 eigenvalues not converged
     c_bands:  2 eigenvalues not converged
     c_bands:  2 eigenvalues not converged
     c_bands:  1 eigenvalues not converged
     c_bands:  2 eigenvalues not converged
     c_bands:  1 eigenvalues not converged
     c_bands:  1 eigenvalues not converged
     c_bands:  1 eigenvalues not converged
     ethr =  1.00E-06,  avg # of iterations = 20.0

     total cpu time spent up to now is       14.8 secs

     total energy              =    -296.24505316 Ry
     estimated scf accuracy    <      66.76226957 Ry

     iteration #  2     ecut=    80.00 Ry     beta= 0.70
     Davidson diagonalization with overlap
     ethr =  1.00E-02,  avg # of iterations = 11.2

     total cpu time spent up to now is       17.4 secs

     total energy              =    -372.85070765 Ry
     estimated scf accuracy    <      43.21343497 Ry

     iteration #  3     ecut=    80.00 Ry     beta= 0.70
     Davidson diagonalization with overlap
     ethr =  1.00E-02,  avg # of iterations =  2.1

     total cpu time spent up to now is       18.5 secs

     total energy              =    -368.60544181 Ry
     estimated scf accuracy    <      13.18032702 Ry

     iteration #  4     ecut=    80.00 Ry     beta= 0.70
     Davidson diagonalization with overlap
     ethr =  1.00E-02,  avg # of iterations =  1.3

     total cpu time spent up to now is       19.8 secs

     total energy              =    -365.46946600 Ry
     estimated scf accuracy    <       7.13752992 Ry

     iteration #  5     ecut=    80.00 Ry     beta= 0.70
     Davidson diagonalization with overlap
     ethr =  1.00E-02,  avg # of iterations =  1.2

     total cpu time spent up to now is       21.0 secs

     total energy              =    -364.61578546 Ry
     estimated scf accuracy    <       3.47640817 Ry

     iteration #  6     ecut=    80.00 Ry     beta= 0.70
     Davidson diagonalization with overlap
     ethr =  1.00E-02,  avg # of iterations =  1.0

     total cpu time spent up to now is       21.9 secs

     total energy              =    -363.81956883 Ry
     estimated scf accuracy    <       2.41520640 Ry

     iteration #  7     ecut=    80.00 Ry     beta= 0.70
     Davidson diagonalization with overlap
     ethr =  8.05E-03,  avg # of iterations =  1.0

     total cpu time spent up to now is       22.7 secs

     total energy              =    -363.54499655 Ry
     estimated scf accuracy    <       1.44126272 Ry

     iteration #  8     ecut=    80.00 Ry     beta= 0.70
     Davidson diagonalization with overlap
     ethr =  4.80E-03,  avg # of iterations =  1.1

     total cpu time spent up to now is       23.5 secs

     total energy              =    -362.89089078 Ry
     estimated scf accuracy    <       1.09424812 Ry

     iteration #  9     ecut=    80.00 Ry     beta= 0.70
     Davidson diagonalization with overlap
     ethr =  3.65E-03,  avg # of iterations =  3.1

     total cpu time spent up to now is       24.5 secs

     total energy              =    -362.97714267 Ry
     estimated scf accuracy    <       0.28470429 Ry

     iteration # 10     ecut=    80.00 Ry     beta= 0.70
     Davidson diagonalization with overlap
     ethr =  9.49E-04,  avg # of iterations =  1.2

     total cpu time spent up to now is       25.4 secs

     total energy              =    -362.68820097 Ry
     estimated scf accuracy    <       0.35985572 Ry

     iteration # 11     ecut=    80.00 Ry     beta= 0.70
     Davidson diagonalization with overlap
     ethr =  9.49E-04,  avg # of iterations =  6.0

     total cpu time spent up to now is       27.0 secs

     total energy              =    -362.71933570 Ry
     estimated scf accuracy    <       0.00247372 Ry

     iteration # 12     ecut=    80.00 Ry     beta= 0.70
     Davidson diagonalization with overlap
     ethr =  8.25E-06,  avg # of iterations =  7.9

     negative rho (up, down):  1.711E-03 0.000E+00

     total cpu time spent up to now is       28.9 secs

     total energy              =    -362.72073028 Ry
     estimated scf accuracy    <       0.00357969 Ry

     iteration # 13     ecut=    80.00 Ry     beta= 0.70
     Davidson diagonalization with overlap
     ethr =  8.25E-06,  avg # of iterations =  5.8

     negative rho (up, down):  8.490E-05 0.000E+00

     total cpu time spent up to now is       30.2 secs

     total energy              =    -362.71846775 Ry
     estimated scf accuracy    <       0.00873095 Ry

     iteration # 14     ecut=    80.00 Ry     beta= 0.70
     Davidson diagonalization with overlap
     ethr =  8.25E-06,  avg # of iterations =  7.6

     negative rho (up, down):  2.400E-07 0.000E+00

     total cpu time spent up to now is       31.8 secs

     total energy              =    -362.71906945 Ry
     estimated scf accuracy    <       0.00054953 Ry

     iteration # 15     ecut=    80.00 Ry     beta= 0.70
     Davidson diagonalization with overlap
     ethr =  1.83E-06,  avg # of iterations =  5.2

     negative rho (up, down):  4.289E-05 0.000E+00

     total cpu time spent up to now is       33.1 secs

     total energy              =    -362.71904874 Ry
     estimated scf accuracy    <       0.00035927 Ry

     iteration # 16     ecut=    80.00 Ry     beta= 0.70
     Davidson diagonalization with overlap
     ethr =  1.20E-06,  avg # of iterations =  2.0

     negative rho (up, down):  1.653E-06 0.000E+00

     total cpu time spent up to now is       34.1 secs

     total energy              =    -362.71902561 Ry
     estimated scf accuracy    <       0.00022150 Ry

     iteration # 17     ecut=    80.00 Ry     beta= 0.70
     Davidson diagonalization with overlap
     ethr =  7.38E-07,  avg # of iterations =  2.0

     total cpu time spent up to now is       35.0 secs

     total energy              =    -362.71900841 Ry
     estimated scf accuracy    <       0.00007754 Ry

     iteration # 18     ecut=    80.00 Ry     beta= 0.70
     Davidson diagonalization with overlap
     ethr =  2.58E-07,  avg # of iterations =  2.0

     total cpu time spent up to now is       36.0 secs

     total energy              =    -362.71902030 Ry
     estimated scf accuracy    <       0.00000915 Ry

     iteration # 19     ecut=    80.00 Ry     beta= 0.70
     Davidson diagonalization with overlap
     ethr =  3.05E-08,  avg # of iterations =  2.0

     total cpu time spent up to now is       37.0 secs

     End of self-consistent calculation

          k = 0.0000 0.0000 0.0000 ( 13505 PWs)   bands (ev):

   -29.3503 -29.3503 -29.1349 -29.1349 -28.9399 -28.7743 -28.7140 -28.7140
   -28.6932 -28.6932 -13.4328  -4.7112  -2.3326  -2.3326  -0.8828   1.6107
     2.2035   2.2035   4.7818   4.9314

     occupation numbers 
     1.0000   1.0000   1.0000   1.0000   1.0000   1.0000   1.0000   1.0000
     1.0000   1.0000   1.0000   1.0000   1.0000   1.0000   1.0000   0.0000
     0.0000   0.0000   0.0000   0.0000

          k =-0.0000 0.1239 0.0000 ( 13575 PWs)   bands (ev):

   -29.3667 -29.3562 -29.1161 -29.1118 -28.9627 -28.7883 -28.7372 -28.7169
   -28.6742 -28.6662 -13.2928  -4.9530  -3.3601  -2.6197   0.2071   1.5897
     2.2228   2.7186   4.7247   5.0619

     occupation numbers 
     1.0000   1.0000   1.0000   1.0000   1.0000   1.0000   1.0000   1.0000
     1.0000   1.0000   1.0000   1.0000   1.0000   1.0000   1.0000   0.0000
     0.0000   0.0000   0.0000   0.0000

          k =-0.0000 0.2479 0.0000 ( 13535 PWs)   bands (ev):

   -29.3982 -29.3643 -29.0735 -29.0632 -29.0176 -28.8152 -28.7660 -28.6977
   -28.6552 -28.6372 -12.8784  -6.2595  -3.5707  -3.1883   0.3775   1.4065
     3.3950   3.9125   4.5829   5.4333

     occupation numbers 
     1.0000   1.0000   1.0000   1.0000   1.0000   1.0000   1.0000   1.0000
     1.0000   1.0000   1.0000   1.0000   1.0000   1.0000   1.0000   0.0000
     0.0000   0.0000   0.0000   0.0000

          k =-0.0000 0.3718 0.0000 ( 13540 PWs)   bands (ev):

   -29.4250 -29.3636 -29.0795 -29.0305 -29.0177 -28.8347 -28.7871 -28.6721
   -28.6450 -28.6245 -12.2181  -7.8718  -3.6858  -3.1141  -0.0562   0.8212
     4.1164   5.1217   5.7965   6.0529

     occupation numbers 
     1.0000   1.0000   1.0000   1.0000   1.0000   1.0000   1.0000   1.0000
     1.0000   1.0000   1.0000   1.0000   1.0000   1.0000   1.0000   0.0000
     0.0000   0.0000   0.0000   0.0000

          k =-0.0000 0.4958 0.0000 ( 13546 PWs)   bands (ev):

   -29.4395 -29.3569 -29.1221 -29.0051 -28.9918 -28.8431 -28.7967 -28.6490
   -28.6416 -28.6284 -11.4726  -9.1349  -3.9603  -2.5832  -0.4465   0.2338
     4.6281   5.6445   5.9388   6.7376

     occupation numbers 
     1.0000   1.0000   1.0000   1.0000   1.0000   1.0000   1.0000   1.0000
     1.0000   1.0000   1.0000   1.0000   1.0000   1.0000   1.0000   0.0000
     0.0000   0.0000   0.0000   0.0000

          k = 0.1073 0.1859 0.0000 ( 13589 PWs)   bands (ev):

   -29.3954 -29.3565 -29.0857 -29.0772 -29.0005 -28.8159 -28.7469 -28.7130
   -28.6508 -28.6490 -13.0152  -5.8002  -3.5906  -3.2091   1.0656   1.4048
     2.1890   3.9650   4.5402   5.3115

     occupation numbers 
     1.0000   1.0000   1.0000   1.0000   1.0000   1.0000   1.0000   1.0000
     1.0000   1.0000   1.0000   1.0000   1.0000   1.0000   1.0000   0.0000
     0.0000   0.0000   0.0000   0.0000

          k = 0.1073 0.3099 0.0000 ( 13558 PWs)   bands (ev):

   -29.4316 -29.3472 -29.0574 -29.0415 -29.0334 -28.8490 -28.7686 -28.6866
   -28.6391 -28.6282 -12.4730  -7.2423  -3.9426  -3.2417   0.7184   1.3623
     3.2836   4.3818   4.9858   5.9245

     occupation numbers 
     1.0000   1.0000   1.0000   1.0000   1.0000   1.0000   1.0000   1.0000
     1.0000   1.0000   1.0000   1.0000   1.0000   1.0000   1.0000   0.0000
     0.0000   0.0000   0.0000   0.0000

          k = 0.1073 0.4338 0.0000 ( 13552 PWs)   bands (ev):

   -29.4576 -29.3298 -29.1110 -29.0078 -28.9974 -28.8665 -28.7917 -28.6579
   -28.6355 -28.6204 -11.7264  -8.6536  -4.4275  -2.6413  -0.0855   1.0920
     4.3385   4.7197   5.7781   6.7041

     occupation numbers 
     1.0000   1.0000   1.0000   1.0000   1.0000   1.0000   1.0000   1.0000
     1.0000   1.0000   1.0000   1.0000   1.0000   1.0000   1.0000   0.0000
     0.0000   0.0000   0.0000   0.0000

          k = 0.1073 0.5578 0.0000 ( 13554 PWs)   bands (ev):

   -29.4668 -29.3190 -29.1353 -28.9952 -28.9845 -28.8680 -28.8037 -28.6417
   -28.6367 -28.6218 -11.1882  -9.4281  -4.5935  -2.2312  -0.5810   0.9646
     4.3173   5.4695   5.9729   6.9657

     occupation numbers 
     1.0000   1.0000   1.0000   1.0000   1.0000   1.0000   1.0000   1.0000
     1.0000   1.0000   1.0000   1.0000   1.0000   1.0000   1.0000   0.0000
     0.0000   0.0000   0.0000   0.0000

          k = 0.2147 0.3718 0.0000 ( 13567 PWs)   bands (ev):

   -29.4706 -29.3086 -29.1055 -29.0055 -28.9999 -28.8910 -28.7872 -28.6621
   -28.6318 -28.6139 -11.8228  -8.3799  -4.8337  -2.6734   0.1647   2.6312
     3.3279   4.2060   4.8212   6.6960

     occupation numbers 
     1.0000   1.0000   1.0000   1.0000   1.0000   1.0000   1.0000   1.0000
     1.0000   1.0000   1.0000   1.0000   1.0000   1.0000   1.0000   0.0000
     0.0000   0.0000   0.0000   0.0000

          k = 0.2147 0.4958 0.0000 ( 13565 PWs)   bands (ev):

   -29.4936 -29.2675 -29.1504 -28.9834 -28.9732 -28.9131 -28.8129 -28.6423
   -28.6333 -28.6021 -11.0421  -9.4406  -5.3280  -1.9950  -0.6132   2.7997
     3.6569   5.0198   5.6755   6.5985

     occupation numbers 
     1.0000   1.0000   1.0000   1.0000   1.0000   1.0000   1.0000   1.0000
     1.0000   1.0000   1.0000   1.0000   1.0000   1.0000   1.0000   0.0000
     0.0000   0.0000   0.0000   0.0000

          k = 0.3220 0.5578 0.0000 ( 13635 PWs)   bands (ev):

   -29.5074 -29.2033 -29.2031 -28.9607 -28.9604 -28.9461 -28.8272 -28.6354
   -28.6353 -28.5917 -10.2477 -10.2475  -5.6865  -1.2854  -1.2854   3.3112
     4.7468   4.7469   5.9301   6.2486

     occupation numbers 
     1.0000   1.0000   1.0000   1.0000   1.0000   1.0000   1.0000   1.0000
     1.0000   1.0000   1.0000   1.0000   1.0000   1.0000   1.0000   0.0000
     0.0000   0.0000   0.0000   0.0000

     highest occupied, lowest unoccupied level (ev):     1.0656    0.2338

!    total energy              =    -362.71902209 Ry
     estimated scf accuracy    <       0.00000002 Ry

     The total energy is the sum of the following terms:
     one-electron contribution =    -670.17375223 Ry
     hartree contribution      =     339.71062198 Ry
     xc contribution           =     -89.83057614 Ry
     ewald contribution        =      57.57468431 Ry

     convergence has been achieved in  19 iterations

     Forces acting on atoms (cartesian axes, Ry/au):

     atom    1 type  1   force =     0.00000000   -0.00000000   -0.15796533
     atom    2 type  1   force =    -0.00000000    0.00000000    0.15796533
     The non-local contrib.  to forces
     atom    1 type  1   force =     0.00000000   -0.00000000    0.42975627
     atom    2 type  1   force =    -0.00000000    0.00000000   -0.43001270
     The ionic contribution  to forces
     atom    1 type  1   force =    -0.00000003    0.00000002  -20.40489085
     atom    2 type  1   force =     0.00000003   -0.00000002   20.40489085
     The local contribution  to forces
     atom    1 type  1   force =     0.00000000   -0.00000000   19.80836877
     atom    2 type  1   force =     0.00000042   -0.00000024  -19.80699201
     The core correction contribution to forces
     atom    1 type  1   force =     0.00000000   -0.00000000    0.00898483
     atom    2 type  1   force =     0.00000002   -0.00000001   -0.00895288
     The Hubbard contrib.    to forces
     atom    1 type  1   force =     0.00000000    0.00000000    0.00000000
     atom    2 type  1   force =     0.00000000    0.00000000    0.00000000
     The SCF correction term to forces
     atom    1 type  1   force =     0.00000000   -0.00000000   -0.00000000
     atom    2 type  1   force =     0.00000000   -0.00000000   -0.00107165

     Total force =     0.157965     Total SCF correction =     0.001072


     Computing stress (Cartesian axis) and pressure

          total   stress  (Ry/bohr**3)                   (kbar)     P=       88.23
   0.00081337   0.00000000   0.00000000          119.65        0.00        0.00
   0.00000000   0.00081337  -0.00000000            0.00      119.65       -0.00
  -0.00000000   0.00000000   0.00017252           -0.00        0.00       25.38

     kinetic stress (kbar)  17294.38     -0.00      0.00
                               -0.00  17294.38      0.00
                                0.00      0.00  17427.37

     local   stress (kbar) -68677.94      0.00     -0.00
                                0.00 -68677.94      0.00
                               -0.00      0.00  65972.28

     nonloc. stress (kbar)  -7398.64      0.00     -0.00
                                0.00  -7398.64      0.00
                               -0.00      0.00  -7412.62

     hartree stress (kbar)  34911.01     -0.00      0.00
                               -0.00  34911.01     -0.00
                                0.00     -0.00 -28257.64

     exc-cor stress (kbar)   4171.01      0.00      0.00
                                0.00   4171.01      0.00
                                0.00      0.00   4171.01

     corecor stress (kbar)  -6426.71      0.00      0.00
                                0.00  -6426.71     -0.00
                                0.00     -0.00  -6426.33

     ewald   stress (kbar)  26246.55     -0.00      0.00
                               -0.00  26246.55     -0.00
                                0.00     -0.00 -45448.70

     hubbard stress (kbar)      0.00      0.00      0.00
                                0.00      0.00      0.00
                                0.00      0.00      0.00

     DFT-D   stress (kbar)      0.00      0.00      0.00
                                0.00      0.00      0.00
                                0.00      0.00      0.00

     XDM     stress (kbar)      0.00      0.00      0.00
                                0.00      0.00      0.00
                                0.00      0.00      0.00

     dft-nl  stress (kbar)      0.00      0.00      0.00
                                0.00      0.00      0.00
                                0.00      0.00      0.00

     TS-vdW  stress (kbar)      0.00      0.00      0.00
                                0.00      0.00      0.00
                                0.00      0.00      0.00


     Energy error            =      1.3E-01
     Gradient error          =      1.6E-01
     Cell gradient error     =      8.1E-04


     number of scf cycles    =   2
     number of bfgs steps    =   1

     enthalpy old            =    -362.5931162547 Ry
     enthalpy new            =    -362.7190220923 Ry

     CASE: enthalpy_new < enthalpy_old

     new trust radius        =       0.2588648046 bohr
     new conv_thr            =       0.0000010000 Ry

     new unit-cell volume =   1284.15886 a.u.^3 (   190.29271 Ang^3 )
     density =      0.20962 g/cm^3

CELL_PARAMETERS (alat=  7.55890450)
   1.069781652   0.000000000   0.000000000
  -0.534890826   0.926458087   0.000000000
   0.000000000   0.000000000   3.000000000

ATOMIC_POSITIONS (crystal)
Sb            0.0000000000        0.0000000000        0.5000000000    0   0   0
Sb            0.3333333330        0.6666666670        0.5706392589



     Writing output data file ./tmp/Sb.save/
     NEW-OLD atomic charge density approx. for the potential

     negative rho (up, down):  3.406E-07 0.000E+00
     extrapolated charge   31.91213, renormalised to   30.00000

     total cpu time spent up to now is       38.9 secs

     Self-consistent Calculation

     iteration #  1     ecut=    80.00 Ry     beta= 0.70
     Davidson diagonalization with overlap
     c_bands:  2 eigenvalues not converged
     c_bands:  2 eigenvalues not converged
     c_bands:  1 eigenvalues not converged
     c_bands:  2 eigenvalues not converged
     c_bands:  2 eigenvalues not converged
     c_bands:  3 eigenvalues not converged
     c_bands:  2 eigenvalues not converged
     c_bands:  1 eigenvalues not converged
     ethr =  1.00E-06,  avg # of iterations = 19.4

     total cpu time spent up to now is       45.0 secs

     total energy              =    -312.01918005 Ry
     estimated scf accuracy    <      50.74197946 Ry

     iteration #  2     ecut=    80.00 Ry     beta= 0.70
     Davidson diagonalization with overlap
     ethr =  1.00E-02,  avg # of iterations = 10.6

     total cpu time spent up to now is       47.2 secs

     total energy              =    -370.27236200 Ry
     estimated scf accuracy    <      34.32713312 Ry

     iteration #  3     ecut=    80.00 Ry     beta= 0.70
     Davidson diagonalization with overlap
     ethr =  1.00E-02,  avg # of iterations =  2.2

     total cpu time spent up to now is       48.4 secs

     total energy              =    -367.38205167 Ry
     estimated scf accuracy    <      10.16934210 Ry

     iteration #  4     ecut=    80.00 Ry     beta= 0.70
     Davidson diagonalization with overlap
     ethr =  1.00E-02,  avg # of iterations =  1.2

     total cpu time spent up to now is       49.5 secs

     total energy              =    -365.34231943 Ry
     estimated scf accuracy    <       5.70424721 Ry

     iteration #  5     ecut=    80.00 Ry     beta= 0.70
     Davidson diagonalization with overlap
     ethr =  1.00E-02,  avg # of iterations =  1.0

     total cpu time spent up to now is       50.5 secs

     total energy              =    -364.31936899 Ry
     estimated scf accuracy    <       3.26706619 Ry

     iteration #  6     ecut=    80.00 Ry     beta= 0.70
     Davidson diagonalization with overlap
     ethr =  1.00E-02,  avg # of iterations =  1.1

     total cpu time spent up to now is       51.3 secs

     total energy              =    -363.74725929 Ry
     estimated scf accuracy    <       1.98822509 Ry

     iteration #  7     ecut=    80.00 Ry     beta= 0.70
     Davidson diagonalization with overlap
     ethr =  6.63E-03,  avg # of iterations =  1.2

     total cpu time spent up to now is       52.2 secs

     total energy              =    -363.47997924 Ry
     estimated scf accuracy    <       1.26652577 Ry

     iteration #  8     ecut=    80.00 Ry     beta= 0.70
     Davidson diagonalization with overlap
     ethr =  4.22E-03,  avg # of iterations =  1.0

     total cpu time spent up to now is       53.0 secs

     total energy              =    -363.12419609 Ry
     estimated scf accuracy    <       0.91986731 Ry

     iteration #  9     ecut=    80.00 Ry     beta= 0.70
     Davidson diagonalization with overlap
     ethr =  3.07E-03,  avg # of iterations =  2.7

     total cpu time spent up to now is       54.0 secs

     total energy              =    -363.09325017 Ry
     estimated scf accuracy    <       0.46758246 Ry

     iteration # 10     ecut=    80.00 Ry     beta= 0.70
     Davidson diagonalization with overlap
     ethr =  1.56E-03,  avg # of iterations =  1.4

     negative rho (up, down):  4.079E-07 0.000E+00

     total cpu time spent up to now is       54.8 secs

     total energy              =    -362.76147288 Ry
     estimated scf accuracy    <       0.41495434 Ry

     iteration # 11     ecut=    80.00 Ry     beta= 0.70
     Davidson diagonalization with overlap
     ethr =  1.38E-03,  avg # of iterations =  6.2

     negative rho (up, down):  3.508E-07 0.000E+00

     total cpu time spent up to now is       56.1 secs

     total energy              =    -362.80105547 Ry
     estimated scf accuracy    <       0.00190269 Ry

     iteration # 12     ecut=    80.00 Ry     beta= 0.70
     Davidson diagonalization with overlap
     ethr =  6.34E-06,  avg # of iterations =  7.5

     negative rho (up, down):  5.090E-08 0.000E+00

     total cpu time spent up to now is       57.5 secs

     total energy              =    -362.80126409 Ry
     estimated scf accuracy    <       0.00138269 Ry

     iteration # 13     ecut=    80.00 Ry     beta= 0.70
     Davidson diagonalization with overlap
     ethr =  4.61E-06,  avg # of iterations =  1.5

     negative rho (up, down):  3.602E-06 0.000E+00

     total cpu time spent up to now is       58.4 secs

     total energy              =    -362.80116779 Ry
     estimated scf accuracy    <       0.00081840 Ry

     iteration # 14     ecut=    80.00 Ry     beta= 0.70
     Davidson diagonalization with overlap
     ethr =  2.73E-06,  avg # of iterations =  6.5

     negative rho (up, down):  1.595E-06 0.000E+00

     total cpu time spent up to now is       59.5 secs

     total energy              =    -362.80118163 Ry
     estimated scf accuracy    <       0.00039578 Ry

     iteration # 15     ecut=    80.00 Ry     beta= 0.70
     Davidson diagonalization with overlap
     ethr =  1.32E-06,  avg # of iterations =  1.0

     total cpu time spent up to now is       60.3 secs

     total energy              =    -362.80113743 Ry
     estimated scf accuracy    <       0.00027428 Ry

     iteration # 16     ecut=    80.00 Ry     beta= 0.70
     Davidson diagonalization with overlap
     ethr =  9.14E-07,  avg # of iterations =  2.0

     negative rho (up, down):  8.127E-05 0.000E+00

     total cpu time spent up to now is       61.3 secs

     total energy              =    -362.80109319 Ry
     estimated scf accuracy    <       0.00013282 Ry

     iteration # 17     ecut=    80.00 Ry     beta= 0.70
     Davidson diagonalization with overlap
     ethr =  4.43E-07,  avg # of iterations =  2.0

     negative rho (up, down):  6.549E-06 0.000E+00

     total cpu time spent up to now is       62.3 secs

     total energy              =    -362.80109580 Ry
     estimated scf accuracy    <       0.00004955 Ry

     iteration # 18     ecut=    80.00 Ry     beta= 0.70
     Davidson diagonalization with overlap
     ethr =  1.65E-07,  avg # of iterations =  3.9

     total cpu time spent up to now is       63.3 secs

     total energy              =    -362.80109860 Ry
     estimated scf accuracy    <       0.00000342 Ry

     iteration # 19     ecut=    80.00 Ry     beta= 0.70
     Davidson diagonalization with overlap
     ethr =  1.14E-08,  avg # of iterations =  2.8

     total cpu time spent up to now is       64.5 secs

     End of self-consistent calculation

          k = 0.0000 0.0000 0.0000 ( 13505 PWs)   bands (ev):

   -29.3639 -29.3639 -29.2060 -29.2060 -29.0330 -28.9793 -28.9195 -28.9195
   -28.8726 -28.8726 -12.9602  -5.2547  -2.4095  -2.4095  -1.3075   0.9616
     1.7908   1.7908   4.3444   4.6782

     occupation numbers 
     1.0000   1.0000   1.0000   1.0000   1.0000   1.0000   1.0000   1.0000
     1.0000   1.0000   1.0000   1.0000   1.0000   1.0000   1.0000   0.0000
     0.0000   0.0000   0.0000   0.0000

          k =-0.0000 0.1199 0.0000 ( 13575 PWs)   bands (ev):

   -29.3722 -29.3640 -29.1952 -29.1917 -29.0489 -28.9848 -28.9298 -28.9188
   -28.8672 -28.8630 -12.8329  -5.5373  -3.2680  -2.6545  -0.2856   0.9133
     1.7779   2.2297   4.3385   4.7973

     occupation numbers 
     1.0000   1.0000   1.0000   1.0000   1.0000   1.0000   1.0000   1.0000
     1.0000   1.0000   1.0000   1.0000   1.0000   1.0000   1.0000   0.0000
     0.0000   0.0000   0.0000   0.0000

          k =-0.0000 0.2399 0.0000 ( 13535 PWs)   bands (ev):

   -29.3882 -29.3604 -29.1698 -29.1585 -29.0893 -28.9951 -28.9505 -28.9090
   -28.8589 -28.8505 -12.4573  -6.5866  -3.5778  -3.1452  -0.0222   0.7600
     2.7085   3.2331   4.2942   5.1239

     occupation numbers 
     1.0000   1.0000   1.0000   1.0000   1.0000   1.0000   1.0000   1.0000
     1.0000   1.0000   1.0000   1.0000   1.0000   1.0000   1.0000   0.0000
     0.0000   0.0000   0.0000   0.0000

          k =-0.0000 0.3598 0.0000 ( 13540 PWs)   bands (ev):

   -29.4022 -29.3495 -29.1442 -29.1376 -29.1231 -29.0007 -28.9721 -28.8940
   -28.8542 -28.8483 -11.8640  -7.9383  -3.5780  -3.2839  -0.4612   0.3990
     3.5928   4.2049   5.1930   5.5520

     occupation numbers 
     1.0000   1.0000   1.0000   1.0000   1.0000   1.0000   1.0000   1.0000
     1.0000   1.0000   1.0000   1.0000   1.0000   1.0000   1.0000   0.0000
     0.0000   0.0000   0.0000   0.0000

          k =-0.0000 0.4797 0.0000 ( 13546 PWs)   bands (ev):

   -29.4098 -29.3362 -29.1735 -29.1290 -29.0989 -29.0014 -28.9873 -28.8792
   -28.8556 -28.8526 -11.2082  -9.0261  -3.8175  -2.8881  -0.8672   0.0343
     3.9994   4.6440   5.4744   6.3256

     occupation numbers 
     1.0000   1.0000   1.0000   1.0000   1.0000   1.0000   1.0000   1.0000
     1.0000   1.0000   1.0000   1.0000   1.0000   1.0000   1.0000   0.0000
     0.0000   0.0000   0.0000   0.0000

          k = 0.1039 0.1799 0.0000 ( 13589 PWs)   bands (ev):

   -29.3869 -29.3587 -29.1767 -29.1691 -29.0762 -28.9960 -28.9393 -28.9168
   -28.8580 -28.8548 -12.5811  -6.2286  -3.5404  -3.1639   0.5390   0.7133
     1.7635   3.2300   4.2538   5.0207

     occupation numbers 
     1.0000   1.0000   1.0000   1.0000   1.0000   1.0000   1.0000   1.0000
     1.0000   1.0000   1.0000   1.0000   1.0000   1.0000   1.0000   0.0000
     0.0000   0.0000   0.0000   0.0000

          k = 0.1039 0.2998 0.0000 ( 13558 PWs)   bands (ev):

   -29.4059 -29.3444 -29.1494 -29.1378 -29.1191 -29.0104 -28.9581 -28.9033
   -28.8517 -28.8476 -12.0916  -7.4199  -3.8184  -3.3252   0.1223   0.9104
     2.6795   3.8790   4.4384   5.5118

     occupation numbers 
     1.0000   1.0000   1.0000   1.0000   1.0000   1.0000   1.0000   1.0000
     1.0000   1.0000   1.0000   1.0000   1.0000   1.0000   1.0000   0.0000
     0.0000   0.0000   0.0000   0.0000

          k = 0.1039 0.4198 0.0000 ( 13552 PWs)   bands (ev):

   -29.4196 -29.3240 -29.1630 -29.1288 -29.1072 -29.0172 -28.9808 -28.8851
   -28.8533 -28.8453 -11.4255  -8.6328  -4.2519  -2.8530  -0.5843   0.7725
     3.7339   3.9882   5.2634   6.1682

     occupation numbers 
     1.0000   1.0000   1.0000   1.0000   1.0000   1.0000   1.0000   1.0000
     1.0000   1.0000   1.0000   1.0000   1.0000   1.0000   1.0000   0.0000
     0.0000   0.0000   0.0000   0.0000

          k = 0.1039 0.5397 0.0000 ( 13554 PWs)   bands (ev):

   -29.4243 -29.3117 -29.1838 -29.1218 -29.0933 -29.0156 -28.9948 -28.8737
   -28.8583 -28.8453 -10.9582  -9.2981  -4.4012  -2.5268  -0.9930   0.6860
     3.6628   4.6608   5.5444   6.3239

     occupation numbers 
     1.0000   1.0000   1.0000   1.0000   1.0000   1.0000   1.0000   1.0000
     1.0000   1.0000   1.0000   1.0000   1.0000   1.0000   1.0000   0.0000
     0.0000   0.0000   0.0000   0.0000

          k = 0.2077 0.3598 0.0000 ( 13567 PWs)   bands (ev):

   -29.4275 -29.3125 -29.1574 -29.1196 -29.1186 -29.0319 -28.9771 -28.8883
   -28.8522 -28.8397 -11.5080  -8.4235  -4.5927  -2.8544  -0.3773   2.0517
     2.7994   3.5905   4.5362   6.2622

     occupation numbers 
     1.0000   1.0000   1.0000   1.0000   1.0000   1.0000   1.0000   1.0000
     1.0000   1.0000   1.0000   1.0000   1.0000   1.0000   1.0000   0.0000
     0.0000   0.0000   0.0000   0.0000

          k = 0.2077 0.4797 0.0000 ( 13565 PWs)   bands (ev):

   -29.4402 -29.2787 -29.1931 -29.1081 -29.0933 -29.0428 -29.0022 -28.8721
   -28.8572 -28.8350 -10.8151  -9.3593  -5.0308  -2.2717  -1.0429   2.2914
     3.1047   4.2191   5.3009   6.0432

     occupation numbers 
     1.0000   1.0000   1.0000   1.0000   1.0000   1.0000   1.0000   1.0000
     1.0000   1.0000   1.0000   1.0000   1.0000   1.0000   1.0000   0.0000
     0.0000   0.0000   0.0000   0.0000

          k = 0.3116 0.5397 0.0000 ( 13635 PWs)   bands (ev):

   -29.4484 -29.2321 -29.2319 -29.0909 -29.0905 -29.0568 -29.0166 -28.8627
   -28.8626 -28.8307 -10.1002 -10.1001  -5.3358  -1.6388  -1.6388   2.8048
     3.9503   3.9504   5.4836   5.7484

     occupation numbers 
     1.0000   1.0000   1.0000   1.0000   1.0000   1.0000   1.0000   1.0000
     1.0000   1.0000   1.0000   1.0000   1.0000   1.0000   1.0000   0.0000
     0.0000   0.0000   0.0000   0.0000

     highest occupied, lowest unoccupied level (ev):     0.5390    0.0343

!    total energy              =    -362.80109929 Ry
     estimated scf accuracy    <       0.00000073 Ry

     The total energy is the sum of the following terms:
     one-electron contribution =    -632.92341401 Ry
     hartree contribution      =     320.86256441 Ry
     xc contribution           =     -89.67496025 Ry
     ewald contribution        =      38.93471056 Ry

     convergence has been achieved in  19 iterations

     Forces acting on atoms (cartesian axes, Ry/au):

     atom    1 type  1   force =    -0.00000000    0.00000000   -0.11022612
     atom    2 type  1   force =     0.00000000   -0.00000000    0.11022612
     The non-local contrib.  to forces
     atom    1 type  1   force =    -0.00000000    0.00000000    0.46455084
     atom    2 type  1   force =    -0.00000000    0.00000000   -0.46423953
     The ionic contribution  to forces
     atom    1 type  1   force =    -0.00000003    0.00000002  -21.03917228
     atom    2 type  1   force =     0.00000003   -0.00000002   21.03917228
     The local contribution  to forces
     atom    1 type  1   force =    -0.00000000   -0.00000000   20.45480056
     atom    2 type  1   force =     0.00000044   -0.00000026  -20.45647266
     The core correction contribution to forces
     atom    1 type  1   force =    -0.00000000   -0.00000000    0.00562974
     atom    2 type  1   force =     0.00000002   -0.00000001   -0.00566998
     The Hubbard contrib.    to forces
     atom    1 type  1   force =     0.00000000    0.00000000    0.00000000
     atom    2 type  1   force =     0.00000000    0.00000000    0.00000000
     The SCF correction term to forces
     atom    1 type  1   force =     0.00000000    0.00000000    0.00000000
     atom    2 type  1   force =     0.00000000   -0.00000000   -0.00237765

     Total force =     0.110226     Total SCF correction =     0.002378


     Computing stress (Cartesian axis) and pressure

          total   stress  (Ry/bohr**3)                   (kbar)     P=       41.92
   0.00036742  -0.00000000   0.00000000           54.05       -0.00        0.00
   0.00000000   0.00036742   0.00000000            0.00       54.05        0.00
   0.00000000   0.00000000   0.00012002            0.00        0.00       17.66

     kinetic stress (kbar)  16178.62     -0.00      0.00
                                0.00  16178.62     -0.00
                                0.00     -0.00  16285.98

     local   stress (kbar) -58746.83      0.00     -0.00
                                0.00 -58746.83      0.00
                               -0.00      0.00  54974.33

     nonloc. stress (kbar)  -6965.46     -0.00      0.00
                               -0.00  -6965.46      0.00
                               -0.00      0.00  -6966.12

     hartree stress (kbar)  30100.53      0.00      0.00
                                0.00  30100.53     -0.00
                                0.00     -0.00 -23445.08

     exc-cor stress (kbar)   3910.50      0.00      0.00
                                0.00   3910.50      0.00
                                0.00      0.00   3910.50

     corecor stress (kbar)  -6016.24     -0.00      0.00
                               -0.00  -6016.24     -0.00
                                0.00     -0.00  -6016.22

     ewald   stress (kbar)  21592.93     -0.00      0.00
                               -0.00  21592.93     -0.00
                                0.00     -0.00 -38725.74

     hubbard stress (kbar)      0.00      0.00      0.00
                                0.00      0.00      0.00
                                0.00      0.00      0.00

     DFT-D   stress (kbar)      0.00      0.00      0.00
                                0.00      0.00      0.00
                                0.00      0.00      0.00

     XDM     stress (kbar)      0.00      0.00      0.00
                                0.00      0.00      0.00
                                0.00      0.00      0.00

     dft-nl  stress (kbar)      0.00      0.00      0.00
                                0.00      0.00      0.00
                                0.00      0.00      0.00

     TS-vdW  stress (kbar)      0.00      0.00      0.00
                                0.00      0.00      0.00
                                0.00      0.00      0.00


     Energy error            =      8.2E-02
     Gradient error          =      1.1E-01
     Cell gradient error     =      3.7E-04


     number of scf cycles    =   3
     number of bfgs steps    =   2

     enthalpy old            =    -362.7190220923 Ry
     enthalpy new            =    -362.8010992882 Ry

     CASE: enthalpy_new < enthalpy_old

     new trust radius        =       0.3829360890 bohr
     new conv_thr            =       0.0000010000 Ry

     new unit-cell volume =   1383.28876 a.u.^3 (   204.98225 Ang^3 )
     density =      0.19460 g/cm^3

CELL_PARAMETERS (alat=  7.55890450)
   1.110304737   0.000000000   0.000000000
  -0.555152369   0.961552108   0.000000000
   0.000000000   0.000000000   3.000000000

ATOMIC_POSITIONS (crystal)
Sb            0.0000000000        0.0000000000        0.5000000000    0   0   0
Sb            0.3333333330        0.6666666670        0.5875260132



     Writing output data file ./tmp/Sb.save/
     NEW-OLD atomic charge density approx. for the potential

     negative rho (up, down):  4.407E-07 0.000E+00
     extrapolated charge   32.14981, renormalised to   30.00000

     total cpu time spent up to now is       66.5 secs

     Self-consistent Calculation

     iteration #  1     ecut=    80.00 Ry     beta= 0.70
     Davidson diagonalization with overlap
     c_bands:  2 eigenvalues not converged
     c_bands:  1 eigenvalues not converged
     c_bands:  1 eigenvalues not converged
     c_bands:  3 eigenvalues not converged
     c_bands:  3 eigenvalues not converged
     c_bands:  3 eigenvalues not converged
     c_bands:  1 eigenvalues not converged
     c_bands:  1 eigenvalues not converged
     c_bands:  1 eigenvalues not converged
     c_bands:  1 eigenvalues not converged
     ethr =  1.00E-06,  avg # of iterations = 20.0

     total cpu time spent up to now is       72.1 secs

     total energy              =    -307.40625289 Ry
     estimated scf accuracy    <      55.37467593 Ry

     iteration #  2     ecut=    80.00 Ry     beta= 0.70
     Davidson diagonalization with overlap
     ethr =  1.00E-02,  avg # of iterations = 10.5

     total cpu time spent up to now is       74.6 secs

     total energy              =    -370.95369117 Ry
     estimated scf accuracy    <      38.02386569 Ry

     iteration #  3     ecut=    80.00 Ry     beta= 0.70
     Davidson diagonalization with overlap
     ethr =  1.00E-02,  avg # of iterations =  2.4

     total cpu time spent up to now is       75.9 secs

     total energy              =    -367.90929286 Ry
     estimated scf accuracy    <      11.13422952 Ry

     iteration #  4     ecut=    80.00 Ry     beta= 0.70
     Davidson diagonalization with overlap
     ethr =  1.00E-02,  avg # of iterations =  1.1

     total cpu time spent up to now is       76.8 secs

     total energy              =    -364.84097411 Ry
     estimated scf accuracy    <       6.31018176 Ry

     iteration #  5     ecut=    80.00 Ry     beta= 0.70
     Davidson diagonalization with overlap
     ethr =  1.00E-02,  avg # of iterations =  1.5

     total cpu time spent up to now is       77.8 secs

     total energy              =    -364.47905998 Ry
     estimated scf accuracy    <       2.63976788 Ry

     iteration #  6     ecut=    80.00 Ry     beta= 0.70
     Davidson diagonalization with overlap
     ethr =  8.80E-03,  avg # of iterations =  1.0

     total cpu time spent up to now is       78.6 secs

     total energy              =    -363.90781733 Ry
     estimated scf accuracy    <       2.11350654 Ry

     iteration #  7     ecut=    80.00 Ry     beta= 0.70
     Davidson diagonalization with overlap
     ethr =  7.05E-03,  avg # of iterations =  1.0

     total cpu time spent up to now is       79.5 secs

     total energy              =    -363.33762871 Ry
     estimated scf accuracy    <       1.39823546 Ry

     iteration #  8     ecut=    80.00 Ry     beta= 0.70
     Davidson diagonalization with overlap
     ethr =  4.66E-03,  avg # of iterations =  1.2

     total cpu time spent up to now is       80.4 secs

     total energy              =    -363.01564146 Ry
     estimated scf accuracy    <       0.69512286 Ry

     iteration #  9     ecut=    80.00 Ry     beta= 0.70
     Davidson diagonalization with overlap
     ethr =  2.32E-03,  avg # of iterations =  2.8

     total cpu time spent up to now is       81.4 secs

     total energy              =    -363.03428714 Ry
     estimated scf accuracy    <       0.26939819 Ry

     iteration # 10     ecut=    80.00 Ry     beta= 0.70
     Davidson diagonalization with overlap
     ethr =  8.98E-04,  avg # of iterations =  1.4

     negative rho (up, down):  7.545E-07 0.000E+00

     total cpu time spent up to now is       82.3 secs

     total energy              =    -362.81393343 Ry
     estimated scf accuracy    <       0.27519967 Ry

     iteration # 11     ecut=    80.00 Ry     beta= 0.70
     Davidson diagonalization with overlap
     ethr =  8.98E-04,  avg # of iterations =  6.9

     negative rho (up, down):  1.881E-07 0.000E+00

     total cpu time spent up to now is       83.6 secs

     total energy              =    -362.85303542 Ry
     estimated scf accuracy    <       0.01297537 Ry

     iteration # 12     ecut=    80.00 Ry     beta= 0.70
     Davidson diagonalization with overlap
     ethr =  4.33E-05,  avg # of iterations =  4.5

     negative rho (up, down):  7.275E-03 0.000E+00

     total cpu time spent up to now is       84.7 secs

     total energy              =    -362.85843353 Ry
     estimated scf accuracy    <       0.01161257 Ry

     iteration # 13     ecut=    80.00 Ry     beta= 0.70
     Davidson diagonalization with overlap
     ethr =  3.87E-05,  avg # of iterations =  5.4

     negative rho (up, down):  4.493E-04 0.000E+00

     total cpu time spent up to now is       85.9 secs

     total energy              =    -362.84969324 Ry
     estimated scf accuracy    <       0.02910820 Ry

     iteration # 14     ecut=    80.00 Ry     beta= 0.70
     Davidson diagonalization with overlap
     ethr =  3.87E-05,  avg # of iterations =  5.7

     negative rho (up, down):  3.058E-04 0.000E+00

     total cpu time spent up to now is       87.1 secs

     total energy              =    -362.84976199 Ry
     estimated scf accuracy    <       0.00619879 Ry

     iteration # 15     ecut=    80.00 Ry     beta= 0.70
     Davidson diagonalization with overlap
     ethr =  2.07E-05,  avg # of iterations =  5.4

     total cpu time spent up to now is       88.4 secs

     total energy              =    -362.85027137 Ry
     estimated scf accuracy    <       0.00258680 Ry

     iteration # 16     ecut=    80.00 Ry     beta= 0.70
     Davidson diagonalization with overlap
     ethr =  8.62E-06,  avg # of iterations =  5.8

     negative rho (up, down):  2.211E-04 0.000E+00

     total cpu time spent up to now is       89.8 secs

     total energy              =    -362.84905032 Ry
     estimated scf accuracy    <       0.00654603 Ry

     iteration # 17     ecut=    80.00 Ry     beta= 0.70
     Davidson diagonalization with overlap
     ethr =  8.62E-06,  avg # of iterations =  5.4

     negative rho (up, down):  9.973E-05 0.000E+00

     total cpu time spent up to now is       91.2 secs

     total energy              =    -362.85029223 Ry
     estimated scf accuracy    <       0.00030664 Ry

     iteration # 18     ecut=    80.00 Ry     beta= 0.70
     Davidson diagonalization with overlap
     ethr =  1.02E-06,  avg # of iterations =  5.3

     total cpu time spent up to now is       92.6 secs

     total energy              =    -362.84964336 Ry
     estimated scf accuracy    <       0.00125386 Ry

     iteration # 19     ecut=    80.00 Ry     beta= 0.70
     Davidson diagonalization with overlap
     ethr =  1.02E-06,  avg # of iterations =  5.5

     total cpu time spent up to now is       94.1 secs

     total energy              =    -362.84993535 Ry
     estimated scf accuracy    <       0.00001488 Ry

     iteration # 20     ecut=    80.00 Ry     beta= 0.70
     Davidson diagonalization with overlap
     ethr =  4.96E-08,  avg # of iterations =  2.0

     total cpu time spent up to now is       95.2 secs

     total energy              =    -362.84993528 Ry
     estimated scf accuracy    <       0.00000509 Ry

     iteration # 21     ecut=    80.00 Ry     beta= 0.70
     Davidson diagonalization with overlap
     ethr =  1.70E-08,  avg # of iterations =  1.9

     total cpu time spent up to now is       96.1 secs

     total energy              =    -362.84993537 Ry
     estimated scf accuracy    <       0.00000102 Ry

     iteration # 22     ecut=    80.00 Ry     beta= 0.70
     Davidson diagonalization with overlap
     ethr =  3.41E-09,  avg # of iterations =  2.5

     total cpu time spent up to now is       97.3 secs

     End of self-consistent calculation

          k = 0.0000 0.0000 0.0000 ( 13505 PWs)   bands (ev):

   -29.5408 -29.5408 -29.4386 -29.4386 -29.3124 -29.2967 -29.2687 -29.2687
   -29.2126 -29.2126 -12.4840  -6.1503  -2.4554  -2.4554  -1.5260   0.1343
     1.2667   1.2667   3.8681   4.3938

     occupation numbers 
     1.0000   1.0000   1.0000   1.0000   1.0000   1.0000   1.0000   1.0000
     1.0000   1.0000   1.0000   1.0000   1.0000   1.0000   1.0000   0.0000
     0.0000   0.0000   0.0000   0.0000

          k =-0.0000 0.1156 0.0000 ( 13575 PWs)   bands (ev):

   -29.5440 -29.5379 -29.4338 -29.4314 -29.3151 -29.3060 -29.2732 -29.2668
   -29.2125 -29.2111 -12.3717  -6.3822  -3.1699  -2.6611  -0.6631   0.0743
     1.2321   1.6171   3.9279   4.5004

     occupation numbers 
     1.0000   1.0000   1.0000   1.0000   1.0000   1.0000   1.0000   1.0000
     1.0000   1.0000   1.0000   1.0000   1.0000   1.0000   1.0000   0.0000
     0.0000   0.0000   0.0000   0.0000

          k =-0.0000 0.2311 0.0000 ( 13535 PWs)   bands (ev):

   -29.5492 -29.5280 -29.4209 -29.4115 -29.3333 -29.3160 -29.2847 -29.2601
   -29.2109 -29.2096 -12.0415  -7.1238  -3.5954  -3.0774  -0.5032   0.0719
     1.9333   2.3911   3.9890   4.7660

     occupation numbers 
     1.0000   1.0000   1.0000   1.0000   1.0000   1.0000   1.0000   1.0000
     1.0000   1.0000   1.0000   1.0000   1.0000   1.0000   1.0000   0.0000
     0.0000   0.0000   0.0000   0.0000

          k =-0.0000 0.3467 0.0000 ( 13540 PWs)   bands (ev):

   -29.5540 -29.5133 -29.4067 -29.3883 -29.3647 -29.3178 -29.3005 -29.2521
   -29.2134 -29.2107 -11.5252  -8.1499  -3.5074  -3.4473  -1.0046  -0.0160
     2.7802   3.0903   4.5834   5.0607

     occupation numbers 
     1.0000   1.0000   1.0000   1.0000   1.0000   1.0000   1.0000   1.0000
     1.0000   1.0000   1.0000   1.0000   1.0000   1.0000   1.0000   0.0000
     0.0000   0.0000   0.0000   0.0000

          k =-0.0000 0.4622 0.0000 ( 13546 PWs)   bands (ev):

   -29.5573 -29.4987 -29.3977 -29.3896 -29.3686 -29.3177 -29.3157 -29.2449
   -29.2206 -29.2107 -10.9675  -9.0235  -3.6527  -3.2660  -1.4092  -0.1749
     3.0893   3.4106   4.9354   5.8531

     occupation numbers 
     1.0000   1.0000   1.0000   1.0000   1.0000   1.0000   1.0000   1.0000
     1.0000   1.0000   1.0000   1.0000   1.0000   1.0000   1.0000   0.0000
     0.0000   0.0000   0.0000   0.0000

          k = 0.1001 0.1733 0.0000 ( 13589 PWs)   bands (ev):

   -29.5492 -29.5299 -29.4244 -29.4184 -29.3233 -29.3186 -29.2793 -29.2638
   -29.2112 -29.2100 -12.1501  -6.8746  -3.4973  -3.0964  -0.1167   0.0728
     1.2185   2.3646   3.9395   4.6951

     occupation numbers 
     1.0000   1.0000   1.0000   1.0000   1.0000   1.0000   1.0000   1.0000
     1.0000   1.0000   1.0000   1.0000   1.0000   1.0000   1.0000   0.0000
     0.0000   0.0000   0.0000   0.0000

          k = 0.1001 0.2889 0.0000 ( 13558 PWs)   bands (ev):

   -29.5563 -29.5144 -29.4096 -29.3989 -29.3523 -29.3222 -29.2922 -29.2566
   -29.2116 -29.2095 -11.7219  -7.7595  -3.6957  -3.4269  -0.5987   0.4485
     1.9554   2.9287   4.0647   5.0783

     occupation numbers 
     1.0000   1.0000   1.0000   1.0000   1.0000   1.0000   1.0000   1.0000
     1.0000   1.0000   1.0000   1.0000   1.0000   1.0000   1.0000   0.0000
     0.0000   0.0000   0.0000   0.0000

          k = 0.1001 0.4044 0.0000 ( 13552 PWs)   bands (ev):

   -29.5617 -29.4951 -29.3978 -29.3824 -29.3775 -29.3236 -29.3102 -29.2473
   -29.2176 -29.2094 -11.1471  -8.7242  -4.0704  -3.1243  -1.1949   0.4248
     2.8412   3.0169   4.7442   5.5641

     occupation numbers 
     1.0000   1.0000   1.0000   1.0000   1.0000   1.0000   1.0000   1.0000
     1.0000   1.0000   1.0000   1.0000   1.0000   1.0000   1.0000   0.0000
     0.0000   0.0000   0.0000   0.0000

          k = 0.1001 0.5200 0.0000 ( 13554 PWs)   bands (ev):

   -29.5631 -29.4837 -29.3984 -29.3922 -29.3651 -29.3227 -29.3224 -29.2412
   -29.2224 -29.2093 -10.7552  -9.2633  -4.2029  -2.8900  -1.5238   0.3884
     2.7571   3.5061   5.0306   5.7694

     occupation numbers 
     1.0000   1.0000   1.0000   1.0000   1.0000   1.0000   1.0000   1.0000
     1.0000   1.0000   1.0000   1.0000   1.0000   1.0000   1.0000   0.0000
     0.0000   0.0000   0.0000   0.0000

          k = 0.2001 0.3467 0.0000 ( 13567 PWs)   bands (ev):

   -29.5657 -29.4900 -29.3929 -29.3870 -29.3784 -29.3286 -29.3078 -29.2485
   -29.2163 -29.2079 -11.2151  -8.5774  -4.3370  -3.1051  -1.0343   1.4359
     2.1179   2.7180   4.2166   5.7507

     occupation numbers 
     1.0000   1.0000   1.0000   1.0000   1.0000   1.0000   1.0000   1.0000
     1.0000   1.0000   1.0000   1.0000   1.0000   1.0000   1.0000   0.0000
     0.0000   0.0000   0.0000   0.0000

          k = 0.2001 0.4622 0.0000 ( 13565 PWs)   bands (ev):

   -29.5704 -29.4643 -29.4045 -29.3834 -29.3715 -29.3315 -29.3273 -29.2381
   -29.2224 -29.2077 -10.6218  -9.3565  -4.7203  -2.6361  -1.5838   1.7098
     2.3156   3.1883   4.8833   5.4581

     occupation numbers 
     1.0000   1.0000   1.0000   1.0000   1.0000   1.0000   1.0000   1.0000
     1.0000   1.0000   1.0000   1.0000   1.0000   1.0000   1.0000   0.0000
     0.0000   0.0000   0.0000   0.0000

          k = 0.3002 0.5200 0.0000 ( 13635 PWs)   bands (ev):

   -29.5745 -29.4326 -29.4325 -29.3723 -29.3721 -29.3399 -29.3349 -29.2293
   -29.2293 -29.2077 -10.0040 -10.0039  -4.9730  -2.0938  -2.0937   2.0627
     2.9822   2.9822   5.0279   5.2433

     occupation numbers 
     1.0000   1.0000   1.0000   1.0000   1.0000   1.0000   1.0000   1.0000
     1.0000   1.0000   1.0000   1.0000   1.0000   1.0000   1.0000   0.0000
     0.0000   0.0000   0.0000   0.0000

     highest occupied, lowest unoccupied level (ev):    -0.1167   -0.1749

!    total energy              =    -362.84993562 Ry
     estimated scf accuracy    <       0.00000002 Ry

     The total energy is the sum of the following terms:
     one-electron contribution =    -590.47744764 Ry
     hartree contribution      =     299.29163077 Ry
     xc contribution           =     -89.50041074 Ry
     ewald contribution        =      17.83629199 Ry

     convergence has been achieved in  22 iterations

     Forces acting on atoms (cartesian axes, Ry/au):

     atom    1 type  1   force =    -0.00000000    0.00000000   -0.07429812
     atom    2 type  1   force =    -0.00000000    0.00000000    0.07429812
     The non-local contrib.  to forces
     atom    1 type  1   force =     0.00000000    0.00000000    0.55098892
     atom    2 type  1   force =     0.00000000    0.00000000   -0.55094860
     The ionic contribution  to forces
     atom    1 type  1   force =    -0.00000002    0.00000001  -21.66294473
     atom    2 type  1   force =     0.00000002   -0.00000001   21.66294473
     The local contribution  to forces
     atom    1 type  1   force =     0.00000000   -0.00000000   21.03157879
     atom    2 type  1   force =     0.00000047   -0.00000027  -21.03270833
     The core correction contribution to forces
     atom    1 type  1   force =    -0.00000000   -0.00000000    0.00507258
     atom    2 type  1   force =     0.00000002   -0.00000001   -0.00510952
     The Hubbard contrib.    to forces
     atom    1 type  1   force =     0.00000000    0.00000000    0.00000000
     atom    2 type  1   force =     0.00000000    0.00000000    0.00000000
     The SCF correction term to forces
     atom    1 type  1   force =     0.00000000   -0.00000000    0.00000000
     atom    2 type  1   force =    -0.00000000    0.00000000    0.00012627

     Total force =     0.074298     Total SCF correction =     0.000126


     Computing stress (Cartesian axis) and pressure

          total   stress  (Ry/bohr**3)                   (kbar)     P=       -3.30
  -0.00007195  -0.00000000   0.00000000          -10.58       -0.00        0.00
  -0.00000000  -0.00007195  -0.00000000           -0.00      -10.58       -0.00
   0.00000000   0.00000000   0.00007665            0.00        0.00       11.28

     kinetic stress (kbar)  15001.20      0.00      0.00
                                0.00  15001.20      0.00
                               -0.00      0.00  15097.93

     local   stress (kbar) -48567.09      0.00     -0.00
                                0.00 -48567.09      0.00
                               -0.00      0.00  43651.87

     nonloc. stress (kbar)  -6508.94      0.00      0.00
                                0.00  -6508.94      0.00
                                0.00      0.00  -6488.44

     hartree stress (kbar)  25149.31     -0.00     -0.00
                               -0.00  25149.31     -0.00
                               -0.00     -0.00 -18470.62

     exc-cor stress (kbar)   3635.75      0.00      0.00
                                0.00   3635.75      0.00
                                0.00      0.00   3635.75

     corecor stress (kbar)  -5584.42     -0.00      0.00
                               -0.00  -5584.42     -0.00
                                0.00     -0.00  -5584.80

     ewald   stress (kbar)  16863.61     -0.00      0.00
                               -0.00  16863.61     -0.00
                                0.00     -0.00 -31830.42

     hubbard stress (kbar)      0.00      0.00      0.00
                                0.00      0.00      0.00
                                0.00      0.00      0.00

     DFT-D   stress (kbar)      0.00      0.00      0.00
                                0.00      0.00      0.00
                                0.00      0.00      0.00

     XDM     stress (kbar)      0.00      0.00      0.00
                                0.00      0.00      0.00
                                0.00      0.00      0.00

     dft-nl  stress (kbar)      0.00      0.00      0.00
                                0.00      0.00      0.00
                                0.00      0.00      0.00

     TS-vdW  stress (kbar)      0.00      0.00      0.00
                                0.00      0.00      0.00
                                0.00      0.00      0.00


     Energy error            =      4.9E-02
     Gradient error          =      7.4E-02
     Cell gradient error     =      7.2E-05


     number of scf cycles    =   4
     number of bfgs steps    =   3

     enthalpy old            =    -362.8010992882 Ry
     enthalpy new            =    -362.8499356199 Ry

     CASE: enthalpy_new < enthalpy_old

     new trust radius        =       0.2312643363 bohr
     new conv_thr            =       0.0000007430 Ry

     new unit-cell volume =   1413.68606 a.u.^3 (   209.48666 Ang^3 )
     density =      0.19042 g/cm^3

CELL_PARAMETERS (alat=  7.55890450)
   1.122437730   0.000000000   0.000000000
  -0.561218865   0.972059588   0.000000000
   0.000000000   0.000000000   3.000000000

ATOMIC_POSITIONS (crystal)
Sb            0.0000000000        0.0000000000        0.5000000000    0   0   0
Sb            0.3333333330        0.6666666670        0.5977243312



     Writing output data file ./tmp/Sb.save/
     NEW-OLD atomic charge density approx. for the potential

     negative rho (up, down):  1.594E-08 0.000E+00
     extrapolated charge   30.64504, renormalised to   30.00000

     total cpu time spent up to now is       99.2 secs

     Self-consistent Calculation

     iteration #  1     ecut=    80.00 Ry     beta= 0.70
     Davidson diagonalization with overlap
     c_bands:  1 eigenvalues not converged
     c_bands:  1 eigenvalues not converged
     c_bands:  1 eigenvalues not converged
     c_bands:  1 eigenvalues not converged
     c_bands:  1 eigenvalues not converged
     c_bands:  1 eigenvalues not converged
     ethr =  1.00E-06,  avg # of iterations = 17.0

     total cpu time spent up to now is      103.9 secs

     total energy              =    -362.19079393 Ry
     estimated scf accuracy    <       0.50165104 Ry

     iteration #  2     ecut=    80.00 Ry     beta= 0.70
     Davidson diagonalization with overlap
     ethr =  1.67E-03,  avg # of iterations =  6.7

     total cpu time spent up to now is      105.8 secs

     total energy              =    -362.85882438 Ry
     estimated scf accuracy    <       0.79790242 Ry

     iteration #  3     ecut=    80.00 Ry     beta= 0.70
     Davidson diagonalization with overlap
     ethr =  1.67E-03,  avg # of iterations =  2.0

     total cpu time spent up to now is      107.0 secs

     total energy              =    -362.89501911 Ry
     estimated scf accuracy    <       0.17512032 Ry

     iteration #  4     ecut=    80.00 Ry     beta= 0.70
     Davidson diagonalization with overlap
     ethr =  5.84E-04,  avg # of iterations =  3.7

     total cpu time spent up to now is      108.0 secs

     total energy              =    -362.88556487 Ry
     estimated scf accuracy    <       0.10134619 Ry

     iteration #  5     ecut=    80.00 Ry     beta= 0.70
     Davidson diagonalization with overlap
     ethr =  3.38E-04,  avg # of iterations =  3.5

     total cpu time spent up to now is      109.1 secs

[...]
          120 deg rotation - cryst. axis [0,0,1]                 
     3s_v     4    5    6
          inv. 180 deg rotation - cart. axis [1,0,0]             

   Cartesian axes

     site n.     atom                  positions (alat units)
         1           Sb  tau(   1) = (   0.0000000   0.0000000   1.5000000  )
         2           Sb  tau(   2) = (  -0.0000000   0.5780244   1.9070860  )

   Crystallographic axes

     site n.     atom                  positions (cryst. coord.)
         1           Sb  tau(   1) = (  0.0000000  0.0000000  0.5000000  )
         2           Sb  tau(   2) = (  0.3333333  0.6666667  0.6356953  )

     number of k points=    12
                       cart. coord. in units 2pi/alat
        k(    1) = (   0.0000000   0.0000000   0.0000000), wk =   0.0246914
        k(    2) = (  -0.0000000   0.1281504   0.0000000), wk =   0.1481481
        k(    3) = (  -0.0000000   0.2563009   0.0000000), wk =   0.1481481
        k(    4) = (  -0.0000000   0.3844513   0.0000000), wk =   0.1481481
        k(    5) = (  -0.0000000   0.5126017   0.0000000), wk =   0.1481481
        k(    6) = (   0.1109815   0.1922257   0.0000000), wk =   0.1481481
        k(    7) = (   0.1109815   0.3203761   0.0000000), wk =   0.2962963
        k(    8) = (   0.1109815   0.4485265   0.0000000), wk =   0.2962963
        k(    9) = (   0.1109815   0.5766770   0.0000000), wk =   0.1481481
        k(   10) = (   0.2219631   0.3844513   0.0000000), wk =   0.1481481
        k(   11) = (   0.2219631   0.5126017   0.0000000), wk =   0.2962963
        k(   12) = (   0.3329446   0.5766770   0.0000000), wk =   0.0493827

                       cryst. coord.
        k(    1) = (   0.0000000   0.0000000   0.0000000), wk =   0.0246914
        k(    2) = (  -0.0000000   0.1111111   0.0000000), wk =   0.1481481
        k(    3) = (  -0.0000000   0.2222222   0.0000000), wk =   0.1481481
        k(    4) = (   0.0000000   0.3333333   0.0000000), wk =   0.1481481
        k(    5) = (  -0.0000000   0.4444444   0.0000000), wk =   0.1481481
        k(    6) = (   0.1111111   0.1111111   0.0000000), wk =   0.1481481
        k(    7) = (   0.1111111   0.2222222   0.0000000), wk =   0.2962963
        k(    8) = (   0.1111111   0.3333333   0.0000000), wk =   0.2962963
        k(    9) = (   0.1111111   0.4444444   0.0000000), wk =   0.1481481
        k(   10) = (   0.2222222   0.2222222   0.0000000), wk =   0.1481481
        k(   11) = (   0.2222222   0.3333333   0.0000000), wk =   0.2962963
        k(   12) = (   0.3333333   0.3333333   0.0000000), wk =   0.0493827

     Dense  grid:   108669 G-vectors     FFT dimensions: (  45,  45, 135)

     Dynamical RAM for                 wfc:       1.04 MB

     Dynamical RAM for     wfc (w. buffer):      13.48 MB

     Dynamical RAM for           str. fact:       0.41 MB

     Dynamical RAM for           local pot:       0.21 MB

     Dynamical RAM for          nlocal pot:       1.87 MB

     Dynamical RAM for                qrad:       2.87 MB

     Dynamical RAM for          rho,v,vnew:       2.82 MB

     Dynamical RAM for               rhoin:       0.94 MB

     Dynamical RAM for            rho*nmix:       6.63 MB

     Dynamical RAM for           G-vectors:       1.76 MB

     Dynamical RAM for          h,s,v(r/c):       0.07 MB

     Dynamical RAM for          <psi|beta>:       0.01 MB

     Dynamical RAM for                 psi:       2.07 MB

     Dynamical RAM for                hpsi:       2.07 MB

     Dynamical RAM for      wfcinit/wfcrot:       2.08 MB

     Estimated static dynamical RAM per process >      34.44 MB

     Estimated max dynamical RAM per process >      38.67 MB

     Estimated total dynamical RAM >     154.70 MB

     Initial potential from superposition of free atoms

     starting charge   29.99907, renormalised to   30.00000

     negative rho (up, down):  3.891E-07 0.000E+00
     Starting wfcs are   18 randomized atomic wfcs +    2 random wfcs

     total cpu time spent up to now is      463.4 secs

     Self-consistent Calculation

     iteration #  1     ecut=    80.00 Ry     beta= 0.70
     Davidson diagonalization with overlap
     c_bands:  1 eigenvalues not converged
     c_bands:  1 eigenvalues not converged
     c_bands:  1 eigenvalues not converged
     c_bands:  1 eigenvalues not converged
     c_bands:  1 eigenvalues not converged
     ethr =  1.00E-06,  avg # of iterations = 17.6

     total cpu time spent up to now is      466.6 secs

     total energy              =    -362.91847328 Ry
     estimated scf accuracy    <       0.01892570 Ry

     iteration #  2     ecut=    80.00 Ry     beta= 0.70
     Davidson diagonalization with overlap
     ethr =  6.31E-05,  avg # of iterations =  2.6

     total cpu time spent up to now is      467.6 secs

     total energy              =    -362.92003062 Ry
     estimated scf accuracy    <       0.00071838 Ry

     iteration #  3     ecut=    80.00 Ry     beta= 0.70
     Davidson diagonalization with overlap
     ethr =  2.39E-06,  avg # of iterations =  3.5

     total cpu time spent up to now is      468.8 secs

     total energy              =    -362.92014583 Ry
     estimated scf accuracy    <       0.00011901 Ry

     iteration #  4     ecut=    80.00 Ry     beta= 0.70
     Davidson diagonalization with overlap
     ethr =  3.97E-07,  avg # of iterations =  2.2

     total cpu time spent up to now is      469.9 secs

     total energy              =    -362.92017413 Ry
     estimated scf accuracy    <       0.00001281 Ry

     iteration #  5     ecut=    80.00 Ry     beta= 0.70
     Davidson diagonalization with overlap
     ethr =  4.27E-08,  avg # of iterations =  2.2

     total cpu time spent up to now is      471.0 secs

     total energy              =    -362.92017666 Ry
     estimated scf accuracy    <       0.00000024 Ry

     iteration #  6     ecut=    80.00 Ry     beta= 0.70
     Davidson diagonalization with overlap
     ethr =  7.93E-10,  avg # of iterations =  5.0

     total cpu time spent up to now is      472.1 secs

     total energy              =    -362.92017669 Ry
     estimated scf accuracy    <       0.00000066 Ry

     iteration #  7     ecut=    80.00 Ry     beta= 0.70
     Davidson diagonalization with overlap
     ethr =  7.93E-10,  avg # of iterations =  2.0

     total cpu time spent up to now is      473.0 secs

     total energy              =    -362.92017681 Ry
     estimated scf accuracy    <       0.00000004 Ry

     iteration #  8     ecut=    80.00 Ry     beta= 0.70
     Davidson diagonalization with overlap
     ethr =  1.48E-10,  avg # of iterations =  1.4

     total cpu time spent up to now is      473.9 secs

     End of self-consistent calculation

          k = 0.0000 0.0000 0.0000 ( 13541 PWs)   bands (ev):

   -28.3062 -28.3062 -28.2137 -28.2137 -28.1736 -28.0840 -28.0840 -28.0474
   -27.9902 -27.9902 -11.5258  -6.2469  -0.5395   0.3635   0.3635   2.0361
     3.2088   3.2088   4.7729   5.0065

     occupation numbers 
     1.0000   1.0000   1.0000   1.0000   1.0000   1.0000   1.0000   1.0000
     1.0000   1.0000   1.0000   1.0000   1.0000   1.0000   1.0000   0.0000
     0.0000   0.0000   0.0000   0.0000

          k =-0.0000 0.1282 0.0000 ( 13601 PWs)   bands (ev):

   -28.3050 -28.2985 -28.2130 -28.2089 -28.1710 -28.0873 -28.0846 -28.0492
   -27.9994 -27.9907 -11.3830  -6.2239  -0.8449  -0.4651   0.0453   2.4632
     3.3217   3.4996   4.9220   5.2112

     occupation numbers 
     1.0000   1.0000   1.0000   1.0000   1.0000   1.0000   1.0000   1.0000
     1.0000   1.0000   1.0000   1.0000   1.0000   1.0000   1.0000   0.0000
     0.0000   0.0000   0.0000   0.0000

          k =-0.0000 0.2563 0.0000 ( 13563 PWs)   bands (ev):

   -28.3020 -28.2768 -28.2116 -28.1954 -28.1622 -28.0968 -28.0873 -28.0544
   -28.0245 -27.9919 -10.9629  -6.2766  -2.3094  -0.5465  -0.3567   1.7038
     3.8860   3.9028   5.2851   5.5474

     occupation numbers 
     1.0000   1.0000   1.0000   1.0000   1.0000   1.0000   1.0000   1.0000
     1.0000   1.0000   1.0000   1.0000   1.0000   1.0000   1.0000   0.0000
     0.0000   0.0000   0.0000   0.0000

          k =-0.0000 0.3845 0.0000 ( 13584 PWs)   bands (ev):

   -28.2985 -28.2467 -28.2084 -28.1759 -28.1479 -28.1118 -28.0952 -28.0690
   -28.0512 -27.9933 -10.3028  -6.7505  -3.0176  -1.0438  -0.6450   1.4431
     3.3282   3.9793   5.6968   6.0495

     occupation numbers 
     1.0000   1.0000   1.0000   1.0000   1.0000   1.0000   1.0000   1.0000
     1.0000   1.0000   1.0000   1.0000   1.0000   1.0000   1.0000   0.0000
     0.0000   0.0000   0.0000   0.0000

          k =-0.0000 0.5126 0.0000 ( 13578 PWs)   bands (ev):

   -28.2962 -28.2280 -28.1920 -28.1535 -28.1363 -28.1311 -28.1087 -28.0973
   -28.0569 -27.9943  -9.5713  -7.5540  -2.9562  -1.3136  -1.2464   1.7725
     2.7193   3.9401   5.3415   6.9810

     occupation numbers 
     1.0000   1.0000   1.0000   1.0000   1.0000   1.0000   1.0000   1.0000
     1.0000   1.0000   1.0000   1.0000   1.0000   1.0000   1.0000   0.0000
     0.0000   0.0000   0.0000   0.0000

          k = 0.1110 0.1922 0.0000 ( 13593 PWs)   bands (ev):

   -28.3030 -28.2837 -28.2108 -28.2013 -28.1649 -28.0944 -28.0853 -28.0528
   -28.0165 -27.9917 -11.1012  -6.2347  -1.8608  -0.7057  -0.3524   2.5581
     3.0892   4.1531   5.1743   5.5018

     occupation numbers 
     1.0000   1.0000   1.0000   1.0000   1.0000   1.0000   1.0000   1.0000
     1.0000   1.0000   1.0000   1.0000   1.0000   1.0000   1.0000   0.0000
     0.0000   0.0000   0.0000   0.0000

          k = 0.1110 0.3204 0.0000 ( 13596 PWs)   bands (ev):

   -28.2998 -28.2566 -28.2077 -28.1880 -28.1515 -28.1083 -28.0882 -28.0610
   -28.0449 -27.9934 -10.5564  -6.4937  -2.7244  -1.5150  -0.3663   2.0789
     3.3923   3.9780   5.6258   5.9149

     occupation numbers 
     1.0000   1.0000   1.0000   1.0000   1.0000   1.0000   1.0000   1.0000
     1.0000   1.0000   1.0000   1.0000   1.0000   1.0000   1.0000   0.0000
     0.0000   0.0000   0.0000   0.0000

          k = 0.1110 0.4485 0.0000 ( 13596 PWs)   bands (ev):

   -28.2969 -28.2282 -28.1996 -28.1693 -28.1355 -28.1269 -28.0976 -28.0874
   -28.0586 -27.9950  -9.8199  -7.2068  -2.9732  -1.8869  -0.8441   2.0824
     3.1353   3.6315   5.7657   6.6557

     occupation numbers 
     1.0000   1.0000   1.0000   1.0000   1.0000   1.0000   1.0000   1.0000
     1.0000   1.0000   1.0000   1.0000   1.0000   1.0000   1.0000   0.0000
     0.0000   0.0000   0.0000   0.0000

          k = 0.1110 0.5767 0.0000 ( 13596 PWs)   bands (ev):

   -28.2958 -28.2202 -28.1822 -28.1508 -28.1491 -28.1283 -28.1072 -28.1033
   -28.0608 -27.9957  -9.2989  -7.7801  -2.9514  -1.7937  -1.3489   2.4437
     2.6632   3.6166   5.4524   7.7129

     occupation numbers 
     1.0000   1.0000   1.0000   1.0000   1.0000   1.0000   1.0000   1.0000
     1.0000   1.0000   1.0000   1.0000   1.0000   1.0000   1.0000   0.0000
     0.0000   0.0000   0.0000   0.0000

          k = 0.2220 0.3845 0.0000 ( 13581 PWs)   bands (ev):

   -28.2974 -28.2269 -28.1999 -28.1798 -28.1340 -28.1278 -28.0886 -28.0836
   -28.0616 -27.9960  -9.9150  -7.0323  -2.6447  -2.6276  -0.6282   2.4915
     2.6771   4.3152   6.1522   6.6126

     occupation numbers 
     1.0000   1.0000   1.0000   1.0000   1.0000   1.0000   1.0000   1.0000
     1.0000   1.0000   1.0000   1.0000   1.0000   1.0000   1.0000   0.0000
     0.0000   0.0000   0.0000   0.0000

          k = 0.2220 0.5126 0.0000 ( 13596 PWs)   bands (ev):

   -28.2957 -28.2045 -28.1847 -28.1639 -28.1517 -28.1205 -28.1135 -28.0915
   -28.0690 -27.9979  -9.1668  -7.7803  -3.2324  -2.1658  -1.1935   1.9529
     3.2950   4.0111   6.3463   7.2564

     occupation numbers 
     1.0000   1.0000   1.0000   1.0000   1.0000   1.0000   1.0000   1.0000
     1.0000   1.0000   1.0000   1.0000   1.0000   1.0000   1.0000   0.0000
     0.0000   0.0000   0.0000   0.0000

          k = 0.3329 0.5767 0.0000 ( 13635 PWs)   bands (ev):

   -28.2952 -28.1808 -28.1777 -28.1777 -28.1431 -28.1431 -28.1118 -28.0816
   -28.0816 -27.9994  -8.4485  -8.4485  -3.5555  -1.6660  -1.6660   1.5711
     3.8777   3.8777   6.8523   7.8391

     occupation numbers 
     1.0000   1.0000   1.0000   1.0000   1.0000   1.0000   1.0000   1.0000
     1.0000   1.0000   1.0000   1.0000   1.0000   1.0000   1.0000   0.0000
     0.0000   0.0000   0.0000   0.0000

     highest occupied, lowest unoccupied level (ev):     0.3635    1.4431

!    total energy              =    -362.92017681 Ry
     estimated scf accuracy    <          3.0E-10 Ry

     The total energy is the sum of the following terms:
     one-electron contribution =    -598.30672837 Ry
     hartree contribution      =     304.51493574 Ry
     xc contribution           =     -89.50946025 Ry
     ewald contribution        =      20.38107606 Ry

     convergence has been achieved in   8 iterations

     Forces acting on atoms (cartesian axes, Ry/au):

     atom    1 type  1   force =     0.00000000    0.00000000    0.00002987
     atom    2 type  1   force =    -0.00000000    0.00000000   -0.00002987
     The non-local contrib.  to forces
     atom    1 type  1   force =    -0.00000000    0.00000000    0.60065183
     atom    2 type  1   force =    -0.00000000    0.00000000   -0.60056767
     The ionic contribution  to forces
     atom    1 type  1   force =    -0.00000001    0.00000001  -34.09466354
     atom    2 type  1   force =     0.00000001   -0.00000001   34.09466354
     The local contribution  to forces
     atom    1 type  1   force =    -0.00000000   -0.00000000   33.50217465
     atom    2 type  1   force =     0.00000043   -0.00000025  -33.50204594
     The core correction contribution to forces
     atom    1 type  1   force =    -0.00000000    0.00000000   -0.00809495
     atom    2 type  1   force =     0.00000002   -0.00000001    0.00809709
     The Hubbard contrib.    to forces
     atom    1 type  1   force =     0.00000000    0.00000000    0.00000000
     atom    2 type  1   force =     0.00000000    0.00000000    0.00000000
     The SCF correction term to forces
     atom    1 type  1   force =     0.00000000   -0.00000000    0.00000000
     atom    2 type  1   force =    -0.00000000    0.00000000   -0.00013440

     Total force =     0.000030     Total SCF correction =     0.000134
     SCF correction compared to forces is large: reduce conv_thr to get better values


     Computing stress (Cartesian axis) and pressure

          total   stress  (Ry/bohr**3)                   (kbar)     P=       -0.14
  -0.00000000  -0.00000000   0.00000000           -0.00       -0.00        0.00
   0.00000000  -0.00000000   0.00000000            0.00       -0.00        0.00
  -0.00000000   0.00000000  -0.00000277           -0.00        0.00       -0.41

     kinetic stress (kbar)  18481.98      0.00      0.00
                                0.00  18481.98     -0.00
                                0.00     -0.00  18520.11

     local   stress (kbar) -60975.78      0.00     -0.00
                                0.00 -60975.78      0.00
                               -0.00      0.00  55178.53

     nonloc. stress (kbar)  -8012.27      0.00      0.00
                                0.00  -8012.27     -0.00
                                0.00     -0.00  -7992.62

     hartree stress (kbar)  31806.56      0.00     -0.00
                                0.00  31806.56     -0.00
                               -0.00     -0.00 -23784.59

     exc-cor stress (kbar)   4471.93      0.00      0.00
                                0.00   4471.93      0.00
                                0.00      0.00   4471.93

     corecor stress (kbar)  -6867.87     -0.00      0.00
                               -0.00  -6867.87     -0.00
                                0.00     -0.00  -6868.58

     ewald   stress (kbar)  21095.45     -0.00      0.00
                               -0.00  21095.45     -0.00
                                0.00     -0.00 -39525.20

     hubbard stress (kbar)      0.00      0.00      0.00
                                0.00      0.00      0.00
                                0.00      0.00      0.00

     DFT-D   stress (kbar)      0.00      0.00      0.00
                                0.00      0.00      0.00
                                0.00      0.00      0.00

     XDM     stress (kbar)      0.00      0.00      0.00
                                0.00      0.00      0.00
                                0.00      0.00      0.00

     dft-nl  stress (kbar)      0.00      0.00      0.00
                                0.00      0.00      0.00
                                0.00      0.00      0.00

     TS-vdW  stress (kbar)      0.00      0.00      0.00
                                0.00      0.00      0.00
                                0.00      0.00      0.00



     Writing output data file ./tmp/Sb.save/

     init_run     :      1.50s CPU      1.54s WALL (       2 calls)
     electrons    :    380.40s CPU    399.91s WALL (      32 calls)
     update_pot   :     17.14s CPU     17.20s WALL (      30 calls)
     forces       :     11.43s CPU     24.19s WALL (      32 calls)
     stress       :     31.73s CPU     32.17s WALL (      32 calls)

     Called by init_run:
     wfcinit      :      0.61s CPU      0.64s WALL (       2 calls)
     wfcinit:atom :      0.01s CPU      0.01s WALL (      24 calls)
     wfcinit:wfcr :      0.59s CPU      0.62s WALL (      24 calls)
     potinit      :      0.27s CPU      0.28s WALL (       2 calls)
     hinit0       :      0.57s CPU      0.58s WALL (       2 calls)

     Called by electrons:
     c_bands      :    325.61s CPU    343.88s WALL (     323 calls)
     sum_band     :     52.52s CPU     53.51s WALL (     323 calls)
     v_of_rho     :      1.19s CPU      1.27s WALL (     339 calls)
     v_h          :      0.43s CPU      0.47s WALL (     339 calls)
     v_xc         :      0.91s CPU      0.96s WALL (     403 calls)
     mix_rho      :      0.94s CPU      1.07s WALL (     323 calls)

     Called by c_bands:
     init_us_2    :      3.81s CPU      4.32s WALL (    8544 calls)
     cegterg      :    316.67s CPU    334.63s WALL (    3876 calls)

     Called by sum_band:
     sum_band:wei :      0.00s CPU      0.00s WALL (     323 calls)
     sum_band:loo :     51.62s CPU     52.55s WALL (     323 calls)
     sum_band:buf :      0.32s CPU      0.33s WALL (    3876 calls)
     sum_band:ini :      1.73s CPU      1.94s WALL (    3876 calls)

     Called by *egterg:
     cdiaghg      :      4.59s CPU      5.22s WALL (   16198 calls)
     cegterg:over :     18.10s CPU     21.50s WALL (   12874 calls)
     cegterg:upda :      9.03s CPU     11.23s WALL (   12874 calls)
     cegterg:last :     10.64s CPU     12.41s WALL (    8511 calls)
     h_psi        :    266.71s CPU    274.85s WALL (   16774 calls)
     g_psi        :      0.66s CPU      0.66s WALL (   12874 calls)

     Called by h_psi:
     h_psi:calbec :     13.84s CPU     16.06s WALL (   16774 calls)
     vloc_psi     :    242.09s CPU    245.10s WALL (   16774 calls)
     add_vuspsi   :      9.81s CPU     12.40s WALL (   16774 calls)

     General routines
     calbec       :     15.60s CPU     18.20s WALL (   18694 calls)
     fft          :      1.30s CPU      1.33s WALL (    1287 calls)
     ffts         :      0.28s CPU      0.30s WALL (     323 calls)
     fftw         :    272.63s CPU    276.14s WALL (  501854 calls)

     Parallel routines
     fft_scatt_xy :     23.18s CPU     23.59s WALL (  503464 calls)
     fft_scatt_yz :     23.29s CPU     24.21s WALL (  503464 calls)

     PWSCF        :   7m22.43s CPU   7m55.33s WALL


   This run was terminated on:  15: 1:20  29Apr2026            

=------------------------------------------------------------------------------=
   JOB DONE.
=------------------------------------------------------------------------------=
Note: The following floating-point exceptions are signalling: IEEE_INVALID_FLAG IEEE_DIVIDE_BY_ZERO IEEE_UNDERFLOW_FLAG
