
     Program PWSCF v.6.7MaX starts on 29Apr2026 at 15:21:51 

     This program is part of the open-source Quantum ESPRESSO suite
     for quantum simulation of materials; please cite
         "P. Giannozzi et al., J. Phys.:Condens. Matter 21 395502 (2009);
         "P. Giannozzi et al., J. Phys.:Condens. Matter 29 465901 (2017);
          URL http://www.quantum-espresso.org", 
     in publications or presentations arising from this work. More details at
     http://www.quantum-espresso.org/quote

     Parallel version (MPI & OpenMP), running on       4 processor cores
     Number of MPI processes:                 4
     Threads/MPI process:                     1

     MPI processes distributed on     1 nodes
     R & G space division:  proc/nbgrp/npool/nimage =       4
     Waiting for input...
     Reading input from standard input

     Current dimensions of program PWSCF are:
     Max number of different atomic species (ntypx) = 10
     Max number of k-points (npk) =  40000
     Max angular momentum in pseudopotentials (lmaxx) =  3
     Message from routine read_pp_mesh:
     mesh size missing, using the one in header

     Subspace diagonalization in iterative solution of the eigenvalue problem:
     a serial algorithm will be used


     Parallelization info
     --------------------
     sticks:   dense  smooth     PW     G-vecs:    dense   smooth      PW
     Min         315     315     90                33943    33943    5092
     Max         316     316     91                33960    33960    5100
     Sum        1261    1261    361               135797   135797   20389



     bravais-lattice index     =            4
     lattice parameter (alat)  =       7.5646  a.u.
     unit-cell volume          =    1404.7197 (a.u.)^3
     number of atoms/cell      =            2
     number of atomic types    =            1
     number of electrons       =        30.00
     number of Kohn-Sham states=           20
     kinetic-energy cutoff     =      80.0000  Ry
     charge density cutoff     =     320.0000  Ry
     scf convergence threshold =      1.0E-06
     mixing beta               =       0.7000
     number of iterations used =            8  plain     mixing
     energy convergence thresh.=      1.0E-04
     force convergence thresh. =      1.0E-03
     press convergence thresh. =      1.0E-03
     Exchange-correlation= SLA  PW   NOGX NOGC
                           (   1   4   0   0   0   0   0)
     nstep                     =           50


     celldm(1)=   7.564574  celldm(2)=   0.000000  celldm(3)=   3.747190
     celldm(4)=   0.000000  celldm(5)=   0.000000  celldm(6)=   0.000000

     crystal axes: (cart. coord. in units of alat)
               a(1) = (   1.000000   0.000000   0.000000 )  
               a(2) = (  -0.500000   0.866025   0.000000 )  
               a(3) = (   0.000000   0.000000   3.747190 )  

     reciprocal axes: (cart. coord. in units 2 pi/alat)
               b(1) = (  1.000000  0.577350 -0.000000 )  
               b(2) = (  0.000000  1.154701  0.000000 )  
               b(3) = (  0.000000 -0.000000  0.266867 )  


     PseudoPot. # 1 for Sb read from file:
     /Users/cdhogan/Research/Codes/espresso/PSEUDO/DOJO-LDA-NC-SR-04-STD/Sb.upf
     MD5 check sum: 7f611d33cada28a8ba2468ea7ddc75dd
     Pseudo is Norm-conserving + core correction, Zval = 15.0
     Generated using ONCVPSP code by D. R. Hamann
     Using radial grid of 1416 points,  6 beta functions with: 
                l(1) =   0
                l(2) =   0
                l(3) =   1
                l(4) =   1
                l(5) =   2
                l(6) =   2

     atomic species   valence    mass     pseudopotential
        Sb            15.00    12.01100     Sb( 1.00)

      6 Sym. Ops. (no inversion) found


                                    s                        frac. trans.

      isym =  1     identity                                     

 cryst.   s( 1) = (     1          0          0      )
                  (     0          1          0      )
                  (     0          0          1      )

 cart.    s( 1) = (  1.0000000  0.0000000  0.0000000 )
                  (  0.0000000  1.0000000  0.0000000 )
                  (  0.0000000  0.0000000  1.0000000 )


      isym =  2     120 deg rotation - cryst. axis [0,0,1]       

 cryst.   s( 2) = (     0          1          0      )
                  (    -1         -1          0      )
                  (     0          0          1      )

 cart.    s( 2) = ( -0.5000000 -0.8660254  0.0000000 )
                  (  0.8660254 -0.5000000  0.0000000 )
                  (  0.0000000  0.0000000  1.0000000 )


      isym =  3     120 deg rotation - cryst. axis [0,0,-1]      

 cryst.   s( 3) = (    -1         -1          0      )
                  (     1          0          0      )
                  (     0          0          1      )

 cart.    s( 3) = ( -0.5000000  0.8660254  0.0000000 )
                  ( -0.8660254 -0.5000000  0.0000000 )
                  (  0.0000000  0.0000000  1.0000000 )


      isym =  4     inv. 180 deg rotation - cart. axis [1,0,0]   

 cryst.   s( 4) = (    -1          0          0      )
                  (     1          1          0      )
                  (     0          0          1      )

 cart.    s( 4) = ( -1.0000000  0.0000000  0.0000000 )
                  (  0.0000000  1.0000000  0.0000000 )
                  (  0.0000000  0.0000000  1.0000000 )


      isym =  5     inv. 180 deg rotation - cryst. axis [0,1,0]  

 cryst.   s( 5) = (     1          1          0      )
                  (     0         -1          0      )
                  (     0          0          1      )

 cart.    s( 5) = (  0.5000000  0.8660254  0.0000000 )
                  (  0.8660254 -0.5000000  0.0000000 )
                  (  0.0000000  0.0000000  1.0000000 )


      isym =  6     inv. 180 deg rotation - cryst. axis [1,1,0]  

 cryst.   s( 6) = (     0         -1          0      )
                  (    -1          0          0      )
                  (     0          0          1      )

 cart.    s( 6) = (  0.5000000 -0.8660254  0.0000000 )
                  ( -0.8660254 -0.5000000  0.0000000 )
                  (  0.0000000  0.0000000  1.0000000 )


     point group C_3v (3m)  
     there are  3 classes
     the character table:

       E     2C3   3s_v 
A_1    1.00  1.00  1.00
A_2    1.00  1.00 -1.00
E      2.00 -1.00  0.00

     the symmetry operations in each class and the name of the first element:

     E        1
          identity                                               
     2C3      2    3
          120 deg rotation - cryst. axis [0,0,1]                 
     3s_v     4    5    6
          inv. 180 deg rotation - cart. axis [1,0,0]             

   Cartesian axes

     site n.     atom                  positions (alat units)
         1           Sb  tau(   1) = (   0.0000000   0.0000000   1.8735948  )
         2           Sb  tau(   2) = (  -0.0000000   0.5773503   2.2805396  )

   Crystallographic axes

     site n.     atom                  positions (cryst. coord.)
         1           Sb  tau(   1) = (  0.0000000  0.0000000  0.5000000  )
         2           Sb  tau(   2) = (  0.3333333  0.6666667  0.6086000  )

     number of k points=    27
                       cart. coord. in units 2pi/alat
        k(    1) = (   0.0000000   0.0000000   0.0000000), wk =   0.0088889
        k(    2) = (   0.0000000   0.0769800   0.0000000), wk =   0.0533333
        k(    3) = (   0.0000000   0.1539601   0.0000000), wk =   0.0533333
        k(    4) = (   0.0000000   0.2309401   0.0000000), wk =   0.0533333
        k(    5) = (   0.0000000   0.3079201   0.0000000), wk =   0.0533333
        k(    6) = (   0.0000000   0.3849002   0.0000000), wk =   0.0533333
        k(    7) = (   0.0000000   0.4618802   0.0000000), wk =   0.0533333
        k(    8) = (   0.0000000   0.5388603   0.0000000), wk =   0.0533333
        k(    9) = (   0.0666667   0.1154701   0.0000000), wk =   0.0533333
        k(   10) = (   0.0666667   0.1924501   0.0000000), wk =   0.1066667
        k(   11) = (   0.0666667   0.2694301   0.0000000), wk =   0.1066667
        k(   12) = (   0.0666667   0.3464102   0.0000000), wk =   0.1066667
        k(   13) = (   0.0666667   0.4233902   0.0000000), wk =   0.1066667
        k(   14) = (   0.0666667   0.5003702   0.0000000), wk =   0.1066667
        k(   15) = (   0.0666667   0.5773503   0.0000000), wk =   0.0533333
        k(   16) = (   0.1333333   0.2309401   0.0000000), wk =   0.0533333
        k(   17) = (   0.1333333   0.3079201   0.0000000), wk =   0.1066667
        k(   18) = (   0.1333333   0.3849002   0.0000000), wk =   0.1066667
        k(   19) = (   0.1333333   0.4618802   0.0000000), wk =   0.1066667
        k(   20) = (   0.1333333   0.5388603   0.0000000), wk =   0.1066667
        k(   21) = (   0.2000000   0.3464102   0.0000000), wk =   0.0533333
        k(   22) = (   0.2000000   0.4233902   0.0000000), wk =   0.1066667
        k(   23) = (   0.2000000   0.5003702   0.0000000), wk =   0.1066667
        k(   24) = (   0.2000000   0.5773503   0.0000000), wk =   0.0533333
        k(   25) = (   0.2666667   0.4618802   0.0000000), wk =   0.0533333
        k(   26) = (   0.2666667   0.5388603   0.0000000), wk =   0.1066667
        k(   27) = (   0.3333333   0.5773503   0.0000000), wk =   0.0177778

                       cryst. coord.
        k(    1) = (   0.0000000   0.0000000   0.0000000), wk =   0.0088889
        k(    2) = (   0.0000000   0.0666667   0.0000000), wk =   0.0533333
        k(    3) = (   0.0000000   0.1333333   0.0000000), wk =   0.0533333
        k(    4) = (   0.0000000   0.2000000   0.0000000), wk =   0.0533333
        k(    5) = (   0.0000000   0.2666667   0.0000000), wk =   0.0533333
        k(    6) = (   0.0000000   0.3333333   0.0000000), wk =   0.0533333
        k(    7) = (   0.0000000   0.4000000   0.0000000), wk =   0.0533333
        k(    8) = (   0.0000000   0.4666667   0.0000000), wk =   0.0533333
        k(    9) = (   0.0666667   0.0666667   0.0000000), wk =   0.0533333
        k(   10) = (   0.0666667   0.1333333   0.0000000), wk =   0.1066667
        k(   11) = (   0.0666667   0.2000000   0.0000000), wk =   0.1066667
        k(   12) = (   0.0666667   0.2666667   0.0000000), wk =   0.1066667
        k(   13) = (   0.0666667   0.3333333   0.0000000), wk =   0.1066667
        k(   14) = (   0.0666667   0.4000000   0.0000000), wk =   0.1066667
        k(   15) = (   0.0666667   0.4666667   0.0000000), wk =   0.0533333
        k(   16) = (   0.1333333   0.1333333   0.0000000), wk =   0.0533333
        k(   17) = (   0.1333333   0.2000000   0.0000000), wk =   0.1066667
        k(   18) = (   0.1333333   0.2666667   0.0000000), wk =   0.1066667
        k(   19) = (   0.1333333   0.3333333   0.0000000), wk =   0.1066667
        k(   20) = (   0.1333333   0.4000000   0.0000000), wk =   0.1066667
        k(   21) = (   0.2000000   0.2000000   0.0000000), wk =   0.0533333
        k(   22) = (   0.2000000   0.2666667   0.0000000), wk =   0.1066667
        k(   23) = (   0.2000000   0.3333333   0.0000000), wk =   0.1066667
        k(   24) = (   0.2000000   0.4000000   0.0000000), wk =   0.0533333
        k(   25) = (   0.2666667   0.2666667   0.0000000), wk =   0.0533333
        k(   26) = (   0.2666667   0.3333333   0.0000000), wk =   0.1066667
        k(   27) = (   0.3333333   0.3333333   0.0000000), wk =   0.0177778

     Dense  grid:   135797 G-vectors     FFT dimensions: (  45,  45, 162)

     Dynamical RAM for                 wfc:       1.29 MB

     Dynamical RAM for     wfc (w. buffer):      36.26 MB

     Dynamical RAM for           str. fact:       0.52 MB

     Dynamical RAM for           local pot:       0.00 MB

     Dynamical RAM for          nlocal pot:       2.33 MB

     Dynamical RAM for                qrad:       2.87 MB

     Dynamical RAM for          rho,v,vnew:       3.45 MB

     Dynamical RAM for               rhoin:       1.15 MB

     Dynamical RAM for            rho*nmix:       8.29 MB

     Dynamical RAM for           G-vectors:       2.20 MB

     Dynamical RAM for          h,s,v(r/c):       0.07 MB

     Dynamical RAM for          <psi|beta>:       0.01 MB

     Dynamical RAM for                 psi:       2.59 MB

     Dynamical RAM for                hpsi:       2.59 MB

     Dynamical RAM for      wfcinit/wfcrot:       2.60 MB

     Estimated static dynamical RAM per process >      61.28 MB

     Estimated max dynamical RAM per process >      66.54 MB

     Estimated total dynamical RAM >     266.16 MB

     Initial potential from superposition of free atoms

     starting charge   29.99907, renormalised to   30.00000

     negative rho (up, down):  6.392E-06 0.000E+00
     Starting wfcs are   18 randomized atomic wfcs +    2 random wfcs

     total cpu time spent up to now is        1.4 secs

     Self-consistent Calculation

     iteration #  1     ecut=    80.00 Ry     beta= 0.70
     Davidson diagonalization with overlap
     ethr =  1.00E-02,  avg # of iterations =  6.0

     Threshold (ethr) on eigenvalues was too large:
     Diagonalizing with lowered threshold

     Davidson diagonalization with overlap
     ethr =  6.08E-05,  avg # of iterations =  6.6

     negative rho (up, down):  2.314E-07 0.000E+00

     total cpu time spent up to now is        7.9 secs

     total energy              =    -362.91860437 Ry
     estimated scf accuracy    <       0.01876729 Ry

     iteration #  2     ecut=    80.00 Ry     beta= 0.70
     Davidson diagonalization with overlap
     ethr =  6.26E-05,  avg # of iterations =  3.3

     total cpu time spent up to now is       10.5 secs

     total energy              =    -362.92018828 Ry
     estimated scf accuracy    <       0.00067370 Ry

     iteration #  3     ecut=    80.00 Ry     beta= 0.70
     Davidson diagonalization with overlap
     ethr =  2.25E-06,  avg # of iterations =  5.7

     total cpu time spent up to now is       14.4 secs

     total energy              =    -362.92030986 Ry
     estimated scf accuracy    <       0.00009289 Ry

     iteration #  4     ecut=    80.00 Ry     beta= 0.70
     Davidson diagonalization with overlap
     ethr =  3.10E-07,  avg # of iterations =  3.4

     total cpu time spent up to now is       17.7 secs

     total energy              =    -362.92033570 Ry
     estimated scf accuracy    <       0.00001367 Ry

     iteration #  5     ecut=    80.00 Ry     beta= 0.70
     Davidson diagonalization with overlap
     ethr =  4.56E-08,  avg # of iterations =  2.1

     total cpu time spent up to now is       20.6 secs

     End of self-consistent calculation

          k = 0.0000 0.0000 0.0000 ( 17037 PWs)   bands (ev):

   -29.3588 -29.3588 -29.2661 -29.2661 -29.2258 -29.1363 -29.1363 -29.0992
   -29.0423 -29.0423 -12.5837  -7.3028  -1.5954  -0.6858  -0.6858   0.9856
     2.1591   2.1591   3.6983   3.8310

     occupation numbers 
     1.0000   1.0000   1.0000   1.0000   1.0000   1.0000   1.0000   1.0000
     1.0000   1.0000   1.0000   1.0000   1.0000   1.0000   1.0000   0.0000
     0.0000   0.0000   0.0000   0.0000

          k = 0.0000 0.0770 0.0000 ( 17003 PWs)   bands (ev):

   -29.3583 -29.3560 -29.2658 -29.2644 -29.2248 -29.1374 -29.1364 -29.0999
   -29.0456 -29.0424 -12.5321  -7.2923  -1.5669  -1.2586  -0.8128   1.4017
     2.0532   2.2795   3.7746   3.8881

     occupation numbers 
     1.0000   1.0000   1.0000   1.0000   1.0000   1.0000   1.0000   1.0000
     1.0000   1.0000   1.0000   1.0000   1.0000   1.0000   1.0000   0.0000
     0.0000   0.0000   0.0000   0.0000

          k = 0.0000 0.1540 0.0000 ( 17005 PWs)   bands (ev):

   -29.3571 -29.3478 -29.2652 -29.2592 -29.2219 -29.1409 -29.1371 -29.1018
   -29.0554 -29.0429 -12.3783  -7.2749  -2.2198  -1.4930  -1.1180   1.2763
     2.4630   2.5426   3.9601   4.0687

     occupation numbers 
     1.0000   1.0000   1.0000   1.0000   1.0000   1.0000   1.0000   1.0000
     1.0000   1.0000   1.0000   1.0000   1.0000   1.0000   1.0000   0.0000
     0.0000   0.0000   0.0000   0.0000

          k = 0.0000 0.2309 0.0000 ( 16949 PWs)   bands (ev):

   -29.3553 -29.3346 -29.2644 -29.2511 -29.2166 -29.1466 -29.1386 -29.1050
   -29.0706 -29.0436 -12.1254  -7.2990  -3.1125  -1.4792  -1.4195   0.7939
     2.7808   2.8439   4.0963   4.3682

     occupation numbers 
     1.0000   1.0000   1.0000   1.0000   1.0000   1.0000   1.0000   1.0000
     1.0000   1.0000   1.0000   1.0000   1.0000   1.0000   1.0000   0.0000
     0.0000   0.0000   0.0000   0.0000

          k = 0.0000 0.3079 0.0000 ( 16947 PWs)   bands (ev):

   -29.3531 -29.3177 -29.2634 -29.2405 -29.2091 -29.1544 -29.1418 -29.1097
   -29.0892 -29.0445 -11.7805  -7.4512  -3.7645  -1.8185  -1.4525   0.4463
     2.6912   2.9051   4.3312   4.6567

     occupation numbers 
     1.0000   1.0000   1.0000   1.0000   1.0000   1.0000   1.0000   1.0000
     1.0000   1.0000   1.0000   1.0000   1.0000   1.0000   1.0000   0.0000
     0.0000   0.0000   0.0000   0.0000

          k = 0.0000 0.3849 0.0000 ( 16966 PWs)   bands (ev):

   -29.3511 -29.2992 -29.2608 -29.2283 -29.2000 -29.1640 -29.1475 -29.1209
   -29.1032 -29.0453 -11.3591  -7.8034  -4.0740  -2.0953  -1.6993   0.3900
     2.2768   2.9281   4.6941   4.8201

     occupation numbers 
     1.0000   1.0000   1.0000   1.0000   1.0000   1.0000   1.0000   1.0000
     1.0000   1.0000   1.0000   1.0000   1.0000   1.0000   1.0000   0.0000
     0.0000   0.0000   0.0000   0.0000

          k = 0.0000 0.4619 0.0000 ( 16974 PWs)   bands (ev):

   -29.3494 -29.2850 -29.2528 -29.2149 -29.1915 -29.1752 -29.1559 -29.1392
   -29.1078 -29.0460 -10.9003  -8.2979  -4.0845  -2.2886  -2.0786   0.5651
     1.8756   2.9053   4.4689   5.3604

     occupation numbers 
     1.0000   1.0000   1.0000   1.0000   1.0000   1.0000   1.0000   1.0000
     1.0000   1.0000   1.0000   1.0000   1.0000   1.0000   1.0000   0.0000
     0.0000   0.0000   0.0000   0.0000

          k = 0.0000 0.5389 0.0000 ( 16956 PWs)   bands (ev):

   -29.3485 -29.2796 -29.2405 -29.2015 -29.1888 -29.1876 -29.1615 -29.1530
   -29.1092 -29.0464 -10.5268  -8.7200  -3.9790  -2.3876  -2.3778   0.7834
     1.5904   2.8827   4.2467   5.9977

     occupation numbers 
     1.0000   1.0000   1.0000   1.0000   1.0000   1.0000   1.0000   1.0000
     1.0000   1.0000   1.0000   1.0000   1.0000   1.0000   1.0000   0.0000
     0.0000   0.0000   0.0000   0.0000

          k = 0.0667 0.1155 0.0000 ( 17017 PWs)   bands (ev):

   -29.3575 -29.3505 -29.2652 -29.2611 -29.2229 -29.1399 -29.1367 -29.1012
   -29.0522 -29.0428 -12.4294  -7.2781  -1.9312  -1.5156  -1.0903   1.7700
     1.7935   2.6292   3.9255   3.9908

     occupation numbers 
     1.0000   1.0000   1.0000   1.0000   1.0000   1.0000   1.0000   1.0000
     1.0000   1.0000   1.0000   1.0000   1.0000   1.0000   1.0000   0.0000
     0.0000   0.0000   0.0000   0.0000

          k = 0.0667 0.1925 0.0000 ( 16948 PWs)   bands (ev):

   -29.3560 -29.3398 -29.2641 -29.2550 -29.2186 -29.1448 -29.1375 -29.1038
   -29.0646 -29.0434 -12.2259  -7.2799  -2.7571  -1.5389  -1.4219   1.3179
     2.2362   2.9869   4.1053   4.2246

     occupation numbers 
     1.0000   1.0000   1.0000   1.0000   1.0000   1.0000   1.0000   1.0000
     1.0000   1.0000   1.0000   1.0000   1.0000   1.0000   1.0000   0.0000
     0.0000   0.0000   0.0000   0.0000

          k = 0.0667 0.2694 0.0000 ( 16946 PWs)   bands (ev):

   -29.3540 -29.3245 -29.2629 -29.2464 -29.2118 -29.1519 -29.1393 -29.1076
   -29.0817 -29.0443 -11.9264  -7.3649  -3.4783  -1.9530  -1.3871   0.8808
     2.5494   2.9879   4.2446   4.5400

     occupation numbers 
     1.0000   1.0000   1.0000   1.0000   1.0000   1.0000   1.0000   1.0000
     1.0000   1.0000   1.0000   1.0000   1.0000   1.0000   1.0000   0.0000
     0.0000   0.0000   0.0000   0.0000

          k = 0.0667 0.3464 0.0000 ( 16963 PWs)   bands (ev):

   -29.3520 -29.3064 -29.2612 -29.2356 -29.2030 -29.1610 -29.1430 -29.1147
   -29.0992 -29.0453 -11.5412  -7.6200  -3.9325  -2.2982  -1.4960   0.6481
     2.6137   2.6814   4.5708   4.8248

     occupation numbers 
     1.0000   1.0000   1.0000   1.0000   1.0000   1.0000   1.0000   1.0000
     1.0000   1.0000   1.0000   1.0000   1.0000   1.0000   1.0000   0.0000
     0.0000   0.0000   0.0000   0.0000

          k = 0.0667 0.4234 0.0000 ( 16975 PWs)   bands (ev):

   -29.3501 -29.2890 -29.2567 -29.2234 -29.1934 -29.1719 -29.1495 -29.1312
   -29.1074 -29.0461 -11.0937  -8.0595  -4.0756  -2.5359  -1.8042   0.6979
     2.1654   2.7068   4.7019   5.1245

     occupation numbers 
     1.0000   1.0000   1.0000   1.0000   1.0000   1.0000   1.0000   1.0000
     1.0000   1.0000   1.0000   1.0000   1.0000   1.0000   1.0000   0.0000
     0.0000   0.0000   0.0000   0.0000

          k = 0.0667 0.5004 0.0000 ( 16992 PWs)   bands (ev):

   -29.3488 -29.2791 -29.2453 -29.2105 -29.1883 -29.1821 -29.1582 -29.1477
   -29.1100 -29.0467 -10.6506  -8.5518  -4.0224  -2.6355  -2.1864   0.9367
     1.7538   2.7191   4.4162   5.7402

     occupation numbers 
     1.0000   1.0000   1.0000   1.0000   1.0000   1.0000   1.0000   1.0000
     1.0000   1.0000   1.0000   1.0000   1.0000   1.0000   1.0000   0.0000
     0.0000   0.0000   0.0000   0.0000

          k = 0.0667 0.5774 0.0000 ( 16980 PWs)   bands (ev):

   -29.3484 -29.2767 -29.2367 -29.1990 -29.1975 -29.1843 -29.1589 -29.1569
   -29.1106 -29.0469 -10.4241  -8.8047  -3.9676  -2.6059  -2.4152   1.1513
     1.4972   2.7272   4.2804   6.4511

     occupation numbers 
     1.0000   1.0000   1.0000   1.0000   1.0000   1.0000   1.0000   1.0000
     1.0000   1.0000   1.0000   1.0000   1.0000   1.0000   1.0000   0.0000
     0.0000   0.0000   0.0000   0.0000

          k = 0.1333 0.2309 0.0000 ( 16939 PWs)   bands (ev):

   -29.3544 -29.3268 -29.2619 -29.2495 -29.2125 -29.1514 -29.1381 -29.1070
   -29.0790 -29.0443 -11.9754  -7.3394  -3.2926  -2.1483  -1.3750   1.4178
     2.0964   3.1515   4.3566   4.3780

     occupation numbers 
     1.0000   1.0000   1.0000   1.0000   1.0000   1.0000   1.0000   1.0000
     1.0000   1.0000   1.0000   1.0000   1.0000   1.0000   1.0000   0.0000
     0.0000   0.0000   0.0000   0.0000

          k = 0.1333 0.3079 0.0000 ( 16963 PWs)   bands (ev):

   -29.3525 -29.3100 -29.2595 -29.2420 -29.2038 -29.1604 -29.1395 -29.1124
   -29.0963 -29.0455 -11.6337  -7.5256  -3.7090  -2.6794  -1.4015   1.2161
     2.1671   3.0617   4.5444   4.7395

     occupation numbers 
     1.0000   1.0000   1.0000   1.0000   1.0000   1.0000   1.0000   1.0000
     1.0000   1.0000   1.0000   1.0000   1.0000   1.0000   1.0000   0.0000
     0.0000   0.0000   0.0000   0.0000

          k = 0.1333 0.3849 0.0000 ( 16991 PWs)   bands (ev):

   -29.3507 -29.2913 -29.2566 -29.2323 -29.1936 -29.1715 -29.1429 -29.1256
   -29.1082 -29.0467 -11.2152  -7.8857  -3.9351  -3.0176  -1.5985   1.0929
     2.1282   2.8272   4.8675   5.0785

     occupation numbers 
     1.0000   1.0000   1.0000   1.0000   1.0000   1.0000   1.0000   1.0000
     1.0000   1.0000   1.0000   1.0000   1.0000   1.0000   1.0000   0.0000
     0.0000   0.0000   0.0000   0.0000

          k = 0.1333 0.4619 0.0000 ( 16984 PWs)   bands (ev):

   -29.3492 -29.2763 -29.2491 -29.2209 -29.1867 -29.1813 -29.1505 -29.1430
   -29.1125 -29.0476 -10.7557  -8.3667  -4.0150  -3.1123  -1.9577   1.1523
     2.0077   2.6211   4.7748   5.5646

     occupation numbers 
     1.0000   1.0000   1.0000   1.0000   1.0000   1.0000   1.0000   1.0000
     1.0000   1.0000   1.0000   1.0000   1.0000   1.0000   1.0000   0.0000
     0.0000   0.0000   0.0000   0.0000

          k = 0.1333 0.5389 0.0000 ( 16984 PWs)   bands (ev):

   -29.3484 -29.2706 -29.2359 -29.2097 -29.1986 -29.1785 -29.1602 -29.1517
   -29.1141 -29.0482 -10.3721  -8.7847  -4.0445  -2.9929  -2.3252   1.2767
     1.8895   2.5183   4.5430   6.2328

     occupation numbers 
     1.0000   1.0000   1.0000   1.0000   1.0000   1.0000   1.0000   1.0000
     1.0000   1.0000   1.0000   1.0000   1.0000   1.0000   1.0000   0.0000
     0.0000   0.0000   0.0000   0.0000

          k = 0.2000 0.3464 0.0000 ( 16951 PWs)   bands (ev):

   -29.3509 -29.2921 -29.2553 -29.2367 -29.1935 -29.1715 -29.1401 -29.1236
   -29.1087 -29.0470 -11.2565  -7.8215  -3.7610  -3.3327  -1.5264   1.4714
     1.7101   3.2152   4.9000   5.0345

     occupation numbers 
     1.0000   1.0000   1.0000   1.0000   1.0000   1.0000   1.0000   1.0000
     1.0000   1.0000   1.0000   1.0000   1.0000   1.0000   1.0000   0.0000
     0.0000   0.0000   0.0000   0.0000

          k = 0.2000 0.4234 0.0000 ( 16988 PWs)   bands (ev):

   -29.3494 -29.2736 -29.2506 -29.2285 -29.1852 -29.1820 -29.1437 -29.1408
   -29.1151 -29.0484 -10.8145  -8.2444  -3.8999  -3.5396  -1.7980   1.2712
     1.7808   3.1621   5.1935   5.5023

     occupation numbers 
     1.0000   1.0000   1.0000   1.0000   1.0000   1.0000   1.0000   1.0000
     1.0000   1.0000   1.0000   1.0000   1.0000   1.0000   1.0000   0.0000
     0.0000   0.0000   0.0000   0.0000

          k = 0.2000 0.5004 0.0000 ( 16974 PWs)   bands (ev):

   -29.3484 -29.2620 -29.2398 -29.2180 -29.1991 -29.1742 -29.1614 -29.1446
   -29.1187 -29.0494 -10.3615  -8.7111  -4.1779  -3.2775  -2.1685   1.0282
     2.1209   2.8951   5.0971   6.0915

     occupation numbers 
     1.0000   1.0000   1.0000   1.0000   1.0000   1.0000   1.0000   1.0000
     1.0000   1.0000   1.0000   1.0000   1.0000   1.0000   1.0000   0.0000
     0.0000   0.0000   0.0000   0.0000

          k = 0.2000 0.5774 0.0000 ( 16978 PWs)   bands (ev):

   -29.3481 -29.2596 -29.2281 -29.2133 -29.2079 -29.1768 -29.1647 -29.1470
   -29.1199 -29.0498 -10.1095  -8.9729  -4.2744  -3.0702  -2.4120   0.9473
     2.4795   2.5567   5.0035   6.3936

     occupation numbers 
     1.0000   1.0000   1.0000   1.0000   1.0000   1.0000   1.0000   1.0000
     1.0000   1.0000   1.0000   1.0000   1.0000   1.0000   1.0000   0.0000
     0.0000   0.0000   0.0000   0.0000

          k = 0.2667 0.4619 0.0000 ( 16999 PWs)   bands (ev):

   -29.3485 -29.2554 -29.2451 -29.2207 -29.1993 -29.1726 -29.1617 -29.1411
   -29.1214 -29.0499 -10.3626  -8.6720  -4.2479  -3.3708  -2.0904   0.9075
     2.0926   3.2255   5.8032   5.9529

     occupation numbers 
     1.0000   1.0000   1.0000   1.0000   1.0000   1.0000   1.0000   1.0000
     1.0000   1.0000   1.0000   1.0000   1.0000   1.0000   1.0000   0.0000
     0.0000   0.0000   0.0000   0.0000

          k = 0.2667 0.5389 0.0000 ( 16995 PWs)   bands (ev):

   -29.3479 -29.2468 -29.2333 -29.2154 -29.2088 -29.1793 -29.1660 -29.1404
   -29.1259 -29.0508  -9.9345  -9.0902  -4.4855  -3.0408  -2.4219   0.6639
     2.4973   2.9921   5.8574   6.0297

     occupation numbers 
     1.0000   1.0000   1.0000   1.0000   1.0000   1.0000   1.0000   1.0000
     1.0000   1.0000   1.0000   1.0000   1.0000   1.0000   1.0000   0.0000
     0.0000   0.0000   0.0000   0.0000

          k = 0.3333 0.5774 0.0000 ( 17013 PWs)   bands (ev):

   -29.3477 -29.2332 -29.2310 -29.2293 -29.1960 -29.1944 -29.1641 -29.1341
   -29.1331 -29.0514  -9.5029  -9.5017  -4.6114  -2.7211  -2.7206   0.5144
     2.8252   2.8256   5.8280   6.7878

     occupation numbers 
     1.0000   1.0000   1.0000   1.0000   1.0000   1.0000   1.0000   1.0000
     1.0000   1.0000   1.0000   1.0000   1.0000   1.0000   1.0000   0.0000
     0.0000   0.0000   0.0000   0.0000

     highest occupied, lowest unoccupied level (ev):    -0.6858    0.3900

!    total energy              =    -362.92033828 Ry
     estimated scf accuracy    <       0.00000085 Ry

     The total energy is the sum of the following terms:
     one-electron contribution =    -802.26789015 Ry
     hartree contribution      =     405.33420520 Ry
     xc contribution           =     -89.50966072 Ry
     ewald contribution        =     123.52300739 Ry

     convergence has been achieved in   5 iterations

     Forces acting on atoms (cartesian axes, Ry/au):

     atom    1 type  1   force =     0.00000000    0.00000000   -0.00090255
     atom    2 type  1   force =     0.00000000    0.00000000    0.00090255
     The non-local contrib.  to forces
     atom    1 type  1   force =     0.00000000    0.00000000    0.59915826
     atom    2 type  1   force =     0.00000000   -0.00000000   -0.59911908
     The ionic contribution  to forces
     atom    1 type  1   force =    -0.00000001    0.00000001  -37.23074892
     atom    2 type  1   force =     0.00000001   -0.00000001   37.23074892
     The local contribution  to forces
     atom    1 type  1   force =     0.00000000   -0.00000000   36.63733778
     atom    2 type  1   force =     0.00000043   -0.00000025  -36.64476464
     The core correction contribution to forces
     atom    1 type  1   force =     0.00000000   -0.00000000   -0.00805975
     atom    2 type  1   force =     0.00000002   -0.00000001    0.00799094
     The Hubbard contrib.    to forces
     atom    1 type  1   force =     0.00000000    0.00000000    0.00000000
     atom    2 type  1   force =     0.00000000    0.00000000    0.00000000
     The SCF correction term to forces
     atom    1 type  1   force =     0.00000000   -0.00000000    0.00000000
     atom    2 type  1   force =    -0.00000000    0.00000000    0.00609727

     Total force =     0.000903     Total SCF correction =     0.006097
     SCF correction compared to forces is large: reduce conv_thr to get better values


     Computing stress (Cartesian axis) and pressure

          total   stress  (Ry/bohr**3)                   (kbar)     P=       -0.17
  -0.00000076   0.00000000   0.00000000           -0.11        0.00        0.00
   0.00000000  -0.00000076   0.00000000            0.00       -0.11        0.00
   0.00000000   0.00000000  -0.00000186            0.00        0.00       -0.27

     kinetic stress (kbar)  14797.79      0.00      0.00
                                0.00  14797.79      0.00
                                0.00     -0.00  14828.53

     local   stress (kbar) -70186.74      0.00     -0.00
                                0.00 -70186.74      0.00
                               -0.00      0.00  65551.11

     nonloc. stress (kbar)  -6415.21      0.00      0.00
                                0.00  -6415.21     -0.00
                                0.00      0.00  -6399.18

     hartree stress (kbar)  36027.11      0.00      0.00
                                0.00  36027.11     -0.00
                                0.00     -0.00 -29606.81

     exc-cor stress (kbar)   3580.52      0.00      0.00
                                0.00   3580.52      0.00
                                0.00      0.00   3580.52

     corecor stress (kbar)  -5498.88     -0.00      0.00
                               -0.00  -5498.88     -0.00
                                0.00     -0.00  -5499.45

     ewald   stress (kbar)  27695.29     -0.00      0.00
                               -0.00  27695.29     -0.00
                                0.00     -0.00 -42455.01

     hubbard stress (kbar)      0.00      0.00      0.00
                                0.00      0.00      0.00
                                0.00      0.00      0.00

     DFT-D   stress (kbar)      0.00      0.00      0.00
                                0.00      0.00      0.00
                                0.00      0.00      0.00

     XDM     stress (kbar)      0.00      0.00      0.00
                                0.00      0.00      0.00
                                0.00      0.00      0.00

     dft-nl  stress (kbar)      0.00      0.00      0.00
                                0.00      0.00      0.00
                                0.00      0.00      0.00

     TS-vdW  stress (kbar)      0.00      0.00      0.00
                                0.00      0.00      0.00
                                0.00      0.00      0.00



     BFGS Geometry Optimization
     Energy error            =      0.0E+00
     Gradient error          =      9.0E-04
     Cell gradient error     =      7.6E-07


     number of scf cycles    =   1
     number of bfgs steps    =   0

     enthalpy new            =    -362.9203382805 Ry

     new trust radius        =       0.0009025524 bohr
     new conv_thr            =       0.0000010000 Ry

     new unit-cell volume =   1404.66643 a.u.^3 (   208.15009 Ang^3 )
     density =      0.19164 g/cm^3

CELL_PARAMETERS (alat=  7.56457368)
   0.999981040   0.000000000   0.000000000
  -0.499990520   0.866008984   0.000000000
   0.000000000   0.000000000   3.747189608

ATOMIC_POSITIONS (crystal)
Sb            0.0000000000        0.0000000000        0.5000000000    0   0   0
Sb            0.3333333330        0.6666666670        0.6086318407



     Writing output data file ./tmp/Sb.save/
     NEW-OLD atomic charge density approx. for the potential
     extrapolated charge   29.99886, renormalised to   30.00000

     total cpu time spent up to now is       23.3 secs

     Self-consistent Calculation

     iteration #  1     ecut=    80.00 Ry     beta= 0.70
     Davidson diagonalization with overlap
     ethr =  1.00E-06,  avg # of iterations =  3.0

     Threshold (ethr) on eigenvalues was too large:
     Diagonalizing with lowered threshold

     Davidson diagonalization with overlap
     ethr =  6.78E-08,  avg # of iterations =  1.5

     total cpu time spent up to now is       28.8 secs

     total energy              =    -362.92032258 Ry
     estimated scf accuracy    <       0.00002226 Ry

     iteration #  2     ecut=    80.00 Ry     beta= 0.70
     Davidson diagonalization with overlap
     c_bands:  1 eigenvalues not converged
     ethr =  7.42E-08,  avg # of iterations =  3.2

     total cpu time spent up to now is       32.0 secs

     total energy              =    -362.92030121 Ry
     estimated scf accuracy    <       0.00032722 Ry

     iteration #  3     ecut=    80.00 Ry     beta= 0.70
     Davidson diagonalization with overlap
     ethr =  7.42E-08,  avg # of iterations =  2.7

     total cpu time spent up to now is       34.7 secs

     End of self-consistent calculation

          k = 0.0000 0.0000 0.0000 ( 17037 PWs)   bands (ev):

   -29.3534 -29.3534 -29.2608 -29.2608 -29.2206 -29.1311 -29.1311 -29.0942
   -29.0372 -29.0372 -12.5769  -7.3004  -1.5938  -0.6789  -0.6789   0.9921
     2.1644   2.1644   3.6993   3.8308

     occupation numbers 
     1.0000   1.0000   1.0000   1.0000   1.0000   1.0000   1.0000   1.0000
     1.0000   1.0000   1.0000   1.0000   1.0000   1.0000   1.0000   0.0000
     0.0000   0.0000   0.0000   0.0000

          k =-0.0000 0.0770 0.0000 ( 17003 PWs)   bands (ev):

   -29.3529 -29.3506 -29.2605 -29.2591 -29.2197 -29.1323 -29.1313 -29.0948
   -29.0405 -29.0374 -12.5253  -7.2898  -1.5652  -1.2517  -0.8059   1.4079
     2.0583   2.2846   3.7758   3.8880

     occupation numbers 
     1.0000   1.0000   1.0000   1.0000   1.0000   1.0000   1.0000   1.0000
     1.0000   1.0000   1.0000   1.0000   1.0000   1.0000   1.0000   0.0000
     0.0000   0.0000   0.0000   0.0000

          k =-0.0000 0.1540 0.0000 ( 17005 PWs)   bands (ev):

   -29.3517 -29.3424 -29.2599 -29.2539 -29.2167 -29.1358 -29.1320 -29.0968
   -29.0503 -29.0378 -12.3715  -7.2723  -2.2131  -1.4913  -1.1111   1.2816
     2.4677   2.5474   3.9613   4.0693

     occupation numbers 
     1.0000   1.0000   1.0000   1.0000   1.0000   1.0000   1.0000   1.0000
     1.0000   1.0000   1.0000   1.0000   1.0000   1.0000   1.0000   0.0000
     0.0000   0.0000   0.0000   0.0000

          k =-0.0000 0.2309 0.0000 ( 16949 PWs)   bands (ev):

   -29.3499 -29.3293 -29.2591 -29.2458 -29.2114 -29.1415 -29.1335 -29.0999
   -29.0655 -29.0385 -12.1186  -7.2960  -3.1061  -1.4724  -1.4176   0.7987
     2.7851   2.8478   4.0974   4.3688

     occupation numbers 
     1.0000   1.0000   1.0000   1.0000   1.0000   1.0000   1.0000   1.0000
     1.0000   1.0000   1.0000   1.0000   1.0000   1.0000   1.0000   0.0000
     0.0000   0.0000   0.0000   0.0000

          k =-0.0000 0.3079 0.0000 ( 16947 PWs)   bands (ev):

   -29.3477 -29.3123 -29.2581 -29.2353 -29.2039 -29.1493 -29.1367 -29.1046
   -29.0840 -29.0394 -11.7738  -7.4475  -3.7589  -1.8116  -1.4502   0.4507
     2.6952   2.9089   4.3320   4.6571

     occupation numbers 
     1.0000   1.0000   1.0000   1.0000   1.0000   1.0000   1.0000   1.0000
     1.0000   1.0000   1.0000   1.0000   1.0000   1.0000   1.0000   0.0000
     0.0000   0.0000   0.0000   0.0000

          k =-0.0000 0.3849 0.0000 ( 16966 PWs)   bands (ev):

   -29.3457 -29.2939 -29.2555 -29.2230 -29.1948 -29.1589 -29.1423 -29.1157
   -29.0981 -29.0402 -11.3524  -7.7987  -4.0692  -2.0884  -1.6966   0.3940
     2.2807   2.9315   4.6955   4.8206

     occupation numbers 
     1.0000   1.0000   1.0000   1.0000   1.0000   1.0000   1.0000   1.0000
     1.0000   1.0000   1.0000   1.0000   1.0000   1.0000   1.0000   0.0000
     0.0000   0.0000   0.0000   0.0000

          k =-0.0000 0.4619 0.0000 ( 16974 PWs)   bands (ev):

   -29.3440 -29.2797 -29.2475 -29.2097 -29.1863 -29.1701 -29.1508 -29.1340
   -29.1027 -29.0409 -10.8936  -8.2925  -4.0804  -2.2818  -2.0757   0.5694
     1.8789   2.9085   4.4709   5.3606

     occupation numbers 
     1.0000   1.0000   1.0000   1.0000   1.0000   1.0000   1.0000   1.0000
     1.0000   1.0000   1.0000   1.0000   1.0000   1.0000   1.0000   0.0000
     0.0000   0.0000   0.0000   0.0000

          k =-0.0000 0.5389 0.0000 ( 16956 PWs)   bands (ev):

   -29.3431 -29.2742 -29.2353 -29.1961 -29.1836 -29.1824 -29.1563 -29.1479
   -29.1041 -29.0413 -10.5202  -8.7142  -3.9753  -2.3808  -2.3748   0.7886
     1.5925   2.8858   4.2489   5.9980

     occupation numbers 
     1.0000   1.0000   1.0000   1.0000   1.0000   1.0000   1.0000   1.0000
     1.0000   1.0000   1.0000   1.0000   1.0000   1.0000   1.0000   0.0000
     0.0000   0.0000   0.0000   0.0000

          k = 0.0667 0.1155 0.0000 ( 17017 PWs)   bands (ev):

   -29.3521 -29.3451 -29.2599 -29.2558 -29.2177 -29.1348 -29.1316 -29.0961
   -29.0471 -29.0377 -12.4226  -7.2756  -1.9244  -1.5139  -1.0835   1.7758
     1.7983   2.6338   3.9270   3.9909

     occupation numbers 
     1.0000   1.0000   1.0000   1.0000   1.0000   1.0000   1.0000   1.0000
     1.0000   1.0000   1.0000   1.0000   1.0000   1.0000   1.0000   0.0000
     0.0000   0.0000   0.0000   0.0000

          k = 0.0667 0.1925 0.0000 ( 16948 PWs)   bands (ev):

   -29.3506 -29.3344 -29.2588 -29.2498 -29.2134 -29.1396 -29.1324 -29.0987
   -29.0595 -29.0383 -12.2191  -7.2771  -2.7506  -1.5328  -1.4194   1.3227
     2.2411   2.9907   4.1065   4.2255

     occupation numbers 
     1.0000   1.0000   1.0000   1.0000   1.0000   1.0000   1.0000   1.0000
     1.0000   1.0000   1.0000   1.0000   1.0000   1.0000   1.0000   0.0000
     0.0000   0.0000   0.0000   0.0000

          k = 0.0667 0.2694 0.0000 ( 16946 PWs)   bands (ev):

   -29.3486 -29.3192 -29.2576 -29.2411 -29.2066 -29.1467 -29.1342 -29.1025
   -29.0766 -29.0392 -11.9197  -7.3615  -3.4723  -1.9464  -1.3849   0.8852
     2.5536   2.9917   4.2457   4.5406

     occupation numbers 
     1.0000   1.0000   1.0000   1.0000   1.0000   1.0000   1.0000   1.0000
     1.0000   1.0000   1.0000   1.0000   1.0000   1.0000   1.0000   0.0000
     0.0000   0.0000   0.0000   0.0000

          k = 0.0667 0.3464 0.0000 ( 16963 PWs)   bands (ev):

   -29.3465 -29.3010 -29.2560 -29.2304 -29.1978 -29.1559 -29.1379 -29.1096
   -29.0941 -29.0402 -11.5345  -7.6157  -3.9273  -2.2916  -1.4934   0.6520
     2.6178   2.6848   4.5716   4.8257

     occupation numbers 
     1.0000   1.0000   1.0000   1.0000   1.0000   1.0000   1.0000   1.0000
     1.0000   1.0000   1.0000   1.0000   1.0000   1.0000   1.0000   0.0000
     0.0000   0.0000   0.0000   0.0000

          k = 0.0667 0.4234 0.0000 ( 16975 PWs)   bands (ev):

   -29.3447 -29.2836 -29.2514 -29.2181 -29.1882 -29.1668 -29.1444 -29.1260
   -29.1024 -29.0410 -11.0870  -8.0544  -4.0712  -2.5295  -1.8011   0.7016
     2.1692   2.7100   4.7040   5.1249

     occupation numbers 
     1.0000   1.0000   1.0000   1.0000   1.0000   1.0000   1.0000   1.0000
     1.0000   1.0000   1.0000   1.0000   1.0000   1.0000   1.0000   0.0000
     0.0000   0.0000   0.0000   0.0000

          k = 0.0667 0.5004 0.0000 ( 16992 PWs)   bands (ev):

   -29.3434 -29.2738 -29.2400 -29.2052 -29.1831 -29.1770 -29.1530 -29.1426
   -29.1049 -29.0416 -10.6440  -8.5462  -4.0184  -2.6293  -2.1831   0.9408
     1.7571   2.7221   4.4184   5.7405

     occupation numbers 
     1.0000   1.0000   1.0000   1.0000   1.0000   1.0000   1.0000   1.0000
     1.0000   1.0000   1.0000   1.0000   1.0000   1.0000   1.0000   0.0000
     0.0000   0.0000   0.0000   0.0000

          k = 0.0667 0.5774 0.0000 ( 16980 PWs)   bands (ev):

   -29.3430 -29.2714 -29.2315 -29.1932 -29.1929 -29.1792 -29.1535 -29.1520
   -29.1056 -29.0419 -10.4175  -8.7989  -3.9637  -2.5994  -2.4122   1.1568
     1.4991   2.7301   4.2827   6.3628

     occupation numbers 
     1.0000   1.0000   1.0000   1.0000   1.0000   1.0000   1.0000   1.0000
     1.0000   1.0000   1.0000   1.0000   1.0000   1.0000   1.0000   0.0000
     0.0000   0.0000   0.0000   0.0000

          k = 0.1333 0.2309 0.0000 ( 16939 PWs)   bands (ev):

   -29.3490 -29.3215 -29.2566 -29.2442 -29.2073 -29.1462 -29.1330 -29.1019
   -29.0739 -29.0392 -11.9686  -7.3361  -3.2865  -2.1418  -1.3729   1.4217
     2.1012   3.1551   4.3581   4.3792

     occupation numbers 
     1.0000   1.0000   1.0000   1.0000   1.0000   1.0000   1.0000   1.0000
     1.0000   1.0000   1.0000   1.0000   1.0000   1.0000   1.0000   0.0000
     0.0000   0.0000   0.0000   0.0000

          k = 0.1333 0.3079 0.0000 ( 16963 PWs)   bands (ev):

   -29.3471 -29.3046 -29.2542 -29.2368 -29.1986 -29.1553 -29.1344 -29.1073
   -29.0912 -29.0404 -11.6270  -7.5216  -3.7035  -2.6730  -1.3991   1.2196
     2.1708   3.0659   4.5461   4.7410

     occupation numbers 
     1.0000   1.0000   1.0000   1.0000   1.0000   1.0000   1.0000   1.0000
     1.0000   1.0000   1.0000   1.0000   1.0000   1.0000   1.0000   0.0000
     0.0000   0.0000   0.0000   0.0000

          k = 0.1333 0.3849 0.0000 ( 16991 PWs)   bands (ev):

   -29.3453 -29.2859 -29.2513 -29.2271 -29.1884 -29.1663 -29.1377 -29.1205
   -29.1031 -29.0416 -11.2085  -7.8808  -3.9303  -3.0113  -1.5957   1.0960
     2.1313   2.8317   4.8698   5.0793

     occupation numbers 
     1.0000   1.0000   1.0000   1.0000   1.0000   1.0000   1.0000   1.0000
     1.0000   1.0000   1.0000   1.0000   1.0000   1.0000   1.0000   0.0000
     0.0000   0.0000   0.0000   0.0000

          k = 0.1333 0.4619 0.0000 ( 16984 PWs)   bands (ev):

   -29.3438 -29.2710 -29.2438 -29.2157 -29.1814 -29.1762 -29.1453 -29.1378
   -29.1074 -29.0425 -10.7491  -8.3612  -4.0104  -3.1064  -1.9545   1.1551
     2.0113   2.6248   4.7775   5.5649

     occupation numbers 
     1.0000   1.0000   1.0000   1.0000   1.0000   1.0000   1.0000   1.0000
     1.0000   1.0000   1.0000   1.0000   1.0000   1.0000   1.0000   0.0000
     0.0000   0.0000   0.0000   0.0000

          k = 0.1333 0.5389 0.0000 ( 16984 PWs)   bands (ev):

   -29.3430 -29.2653 -29.2307 -29.2044 -29.1934 -29.1734 -29.1549 -29.1467
   -29.1090 -29.0431 -10.3656  -8.7788  -4.0397  -2.9874  -2.3221   1.2791
     1.8942   2.5208   4.5458   6.2332

     occupation numbers 
     1.0000   1.0000   1.0000   1.0000   1.0000   1.0000   1.0000   1.0000
     1.0000   1.0000   1.0000   1.0000   1.0000   1.0000   1.0000   0.0000
     0.0000   0.0000   0.0000   0.0000

          k = 0.2000 0.3464 0.0000 ( 16951 PWs)   bands (ev):

   -29.3455 -29.2868 -29.2501 -29.2314 -29.1883 -29.1664 -29.1350 -29.1184
   -29.1037 -29.0419 -11.2498  -7.8168  -3.7562  -3.3262  -1.5236   1.4741
     1.7132   3.2195   4.9041   5.0351

     occupation numbers 
     1.0000   1.0000   1.0000   1.0000   1.0000   1.0000   1.0000   1.0000
     1.0000   1.0000   1.0000   1.0000   1.0000   1.0000   1.0000   0.0000
     0.0000   0.0000   0.0000   0.0000

          k = 0.2000 0.4234 0.0000 ( 16988 PWs)   bands (ev):

   -29.3440 -29.2682 -29.2453 -29.2232 -29.1798 -29.1771 -29.1385 -29.1357
   -29.1101 -29.0433 -10.8078  -8.2390  -3.8943  -3.5346  -1.7950   1.2740
     1.7832   3.1661   5.1977   5.5026

     occupation numbers 
     1.0000   1.0000   1.0000   1.0000   1.0000   1.0000   1.0000   1.0000
     1.0000   1.0000   1.0000   1.0000   1.0000   1.0000   1.0000   0.0000
     0.0000   0.0000   0.0000   0.0000

          k = 0.2000 0.5004 0.0000 ( 16974 PWs)   bands (ev):

   -29.3430 -29.2567 -29.2345 -29.2127 -29.1939 -29.1691 -29.1562 -29.1395
   -29.1136 -29.0443 -10.3550  -8.7053  -4.1720  -3.2732  -2.1653   1.0308
     2.1233   2.8986   5.1010   6.0919

     occupation numbers 
     1.0000   1.0000   1.0000   1.0000   1.0000   1.0000   1.0000   1.0000
     1.0000   1.0000   1.0000   1.0000   1.0000   1.0000   1.0000   0.0000
     0.0000   0.0000   0.0000   0.0000

          k = 0.2000 0.5774 0.0000 ( 16978 PWs)   bands (ev):

   -29.3427 -29.2543 -29.2228 -29.2081 -29.2026 -29.1717 -29.1595 -29.1419
   -29.1148 -29.0447 -10.1031  -8.9669  -4.2685  -3.0659  -2.4089   0.9499
     2.4814   2.5604   5.0075   6.3950

     occupation numbers 
     1.0000   1.0000   1.0000   1.0000   1.0000   1.0000   1.0000   1.0000
     1.0000   1.0000   1.0000   1.0000   1.0000   1.0000   1.0000   0.0000
     0.0000   0.0000   0.0000   0.0000

          k = 0.2667 0.4619 0.0000 ( 16999 PWs)   bands (ev):

   -29.3431 -29.2501 -29.2399 -29.2154 -29.1941 -29.1675 -29.1565 -29.1360
   -29.1163 -29.0448 -10.3561  -8.6662  -4.2416  -3.3669  -2.0872   0.9102
     2.0947   3.2285   5.8082   5.9543

     occupation numbers 
     1.0000   1.0000   1.0000   1.0000   1.0000   1.0000   1.0000   1.0000
     1.0000   1.0000   1.0000   1.0000   1.0000   1.0000   1.0000   0.0000
     0.0000   0.0000   0.0000   0.0000

          k = 0.2667 0.5389 0.0000 ( 16995 PWs)   bands (ev):

   -29.3425 -29.2416 -29.2281 -29.2102 -29.2035 -29.1741 -29.1608 -29.1353
   -29.1209 -29.0457  -9.9280  -9.0841  -4.4791  -3.0371  -2.4186   0.6666
     2.4992   2.9946   5.8613   6.0321

     occupation numbers 
     1.0000   1.0000   1.0000   1.0000   1.0000   1.0000   1.0000   1.0000
     1.0000   1.0000   1.0000   1.0000   1.0000   1.0000   1.0000   0.0000
     0.0000   0.0000   0.0000   0.0000

          k = 0.3333 0.5774 0.0000 ( 17013 PWs)   bands (ev):

   -29.3423 -29.2280 -29.2251 -29.2247 -29.1902 -29.1898 -29.1589 -29.1286
   -29.1284 -29.0463  -9.4961  -9.4959  -4.6050  -2.7175  -2.7174   0.5170
     2.8273   2.8274   5.8293   6.7927

     occupation numbers 
     1.0000   1.0000   1.0000   1.0000   1.0000   1.0000   1.0000   1.0000
     1.0000   1.0000   1.0000   1.0000   1.0000   1.0000   1.0000   0.0000
     0.0000   0.0000   0.0000   0.0000

     highest occupied, lowest unoccupied level (ev):    -0.6789    0.3940

!    total energy              =    -362.92033864 Ry
     estimated scf accuracy    <       0.00000053 Ry

     The total energy is the sum of the following terms:
     one-electron contribution =    -802.21165795 Ry
     hartree contribution      =     405.30092708 Ry
     xc contribution           =     -89.50903878 Ry
     ewald contribution        =     123.49943100 Ry

     convergence has been achieved in   3 iterations

     Forces acting on atoms (cartesian axes, Ry/au):

     atom    1 type  1   force =     0.00000000   -0.00000000   -0.00014890
     atom    2 type  1   force =    -0.00000000    0.00000000    0.00014890
     The non-local contrib.  to forces
     atom    1 type  1   force =    -0.00000000    0.00000000    0.59517789
     atom    2 type  1   force =     0.00000000   -0.00000000   -0.60327616
     The ionic contribution  to forces
     atom    1 type  1   force =    -0.00000001    0.00000001  -37.23453145
     atom    2 type  1   force =     0.00000001   -0.00000001   37.23453145
     The local contribution  to forces
     atom    1 type  1   force =     0.00000000   -0.00000000   36.63971130
     atom    2 type  1   force =     0.00000043   -0.00000025  -36.64067384
     The core correction contribution to forces
     atom    1 type  1   force =    -0.00000000   -0.00000000   -0.00821077
     atom    2 type  1   force =     0.00000002   -0.00000001    0.00819120
     The Hubbard contrib.    to forces
     atom    1 type  1   force =     0.00000000    0.00000000    0.00000000
     atom    2 type  1   force =     0.00000000    0.00000000    0.00000000
     The SCF correction term to forces
     atom    1 type  1   force =    -0.00000000    0.00000000    0.00000000
     atom    2 type  1   force =     0.00000000   -0.00000000   -0.00308590

     Total force =     0.000149     Total SCF correction =     0.003086
     SCF correction compared to forces is large: reduce conv_thr to get better values


     Computing stress (Cartesian axis) and pressure

          total   stress  (Ry/bohr**3)                   (kbar)     P=       -0.39
  -0.00000145   0.00000000   0.00000000           -0.21        0.00        0.00
  -0.00000000  -0.00000145   0.00000000           -0.00       -0.21        0.00
  -0.00000000   0.00000000  -0.00000514           -0.00        0.00       -0.76

     kinetic stress (kbar)  14798.24     -0.00     -0.00
                               -0.00  14798.24      0.00
                               -0.00      0.00  14828.80

     local   stress (kbar) -70182.44      0.00     -0.00
                                0.00 -70182.44      0.00
                               -0.00      0.00  65545.61

     nonloc. stress (kbar)  -6415.52     -0.00      0.00
                                0.00  -6415.52     -0.00
                               -0.00      0.00  -6399.50

     hartree stress (kbar)  36024.74     -0.00     -0.00
                               -0.00  36024.74     -0.00
                               -0.00     -0.00 -29603.93

     exc-cor stress (kbar)   3580.67      0.00      0.00
                                0.00   3580.67      0.00
                                0.00      0.00   3580.67

     corecor stress (kbar)  -5499.08     -0.00      0.00
                               -0.00  -5499.08     -0.00
                                0.00     -0.00  -5499.65

     ewald   stress (kbar)  27693.19     -0.00      0.00
                               -0.00  27693.19     -0.00
                                0.00     -0.00 -42452.77

     hubbard stress (kbar)      0.00      0.00      0.00
                                0.00      0.00      0.00
                                0.00      0.00      0.00

     DFT-D   stress (kbar)      0.00      0.00      0.00
                                0.00      0.00      0.00
                                0.00      0.00      0.00

     XDM     stress (kbar)      0.00      0.00      0.00
                                0.00      0.00      0.00
                                0.00      0.00      0.00

     dft-nl  stress (kbar)      0.00      0.00      0.00
                                0.00      0.00      0.00
                                0.00      0.00      0.00

     TS-vdW  stress (kbar)      0.00      0.00      0.00
                                0.00      0.00      0.00
                                0.00      0.00      0.00


     Energy error            =      3.6E-07
     Gradient error          =      1.5E-04
     Cell gradient error     =      1.5E-06


     number of scf cycles    =   2
     number of bfgs steps    =   1

     enthalpy old            =    -362.9203382805 Ry
     enthalpy new            =    -362.9203386439 Ry

     CASE: enthalpy_new < enthalpy_old

     new trust radius        =       0.0004176871 bohr
     new conv_thr            =       0.0000000100 Ry

     new unit-cell volume =   1404.51790 a.u.^3 (   208.12808 Ang^3 )
     density =      0.19166 g/cm^3

CELL_PARAMETERS (alat=  7.56457368)
   0.999928169  -0.000000000   0.000000000
  -0.499964084   0.865963196   0.000000000
   0.000000000   0.000000000   3.747189608

ATOMIC_POSITIONS (crystal)
Sb            0.0000000000        0.0000000000        0.5000000000    0   0   0
Sb            0.3333333330        0.6666666670        0.6086465760



     Writing output data file ./tmp/Sb.save/
     NEW-OLD atomic charge density approx. for the potential
     extrapolated charge   29.99683, renormalised to   30.00000

     total cpu time spent up to now is       37.5 secs

     Self-consistent Calculation

     iteration #  1     ecut=    80.00 Ry     beta= 0.70
     Davidson diagonalization with overlap
     ethr =  1.00E-06,  avg # of iterations =  2.0

     Threshold (ethr) on eigenvalues was too large:
     Diagonalizing with lowered threshold

     Davidson diagonalization with overlap
     ethr =  3.00E-08,  avg # of iterations =  2.0

     total cpu time spent up to now is       43.2 secs

     total energy              =    -362.92032870 Ry
     estimated scf accuracy    <       0.00000926 Ry

     iteration #  2     ecut=    80.00 Ry     beta= 0.70
     Davidson diagonalization with overlap
     ethr =  3.09E-08,  avg # of iterations =  3.0

     total cpu time spent up to now is       46.5 secs

     total energy              =    -362.92033777 Ry
     estimated scf accuracy    <       0.00001601 Ry

     iteration #  3     ecut=    80.00 Ry     beta= 0.70
     Davidson diagonalization with overlap
     ethr =  3.09E-08,  avg # of iterations =  2.0

     total cpu time spent up to now is       49.2 secs

     total energy              =    -362.92033921 Ry
     estimated scf accuracy    <       0.00000185 Ry

     iteration #  4     ecut=    80.00 Ry     beta= 0.70
     Davidson diagonalization with overlap
     ethr =  6.18E-09,  avg # of iterations =  1.0

     total cpu time spent up to now is       51.6 secs

     total energy              =    -362.92033914 Ry
     estimated scf accuracy    <       0.00000103 Ry

     iteration #  5     ecut=    80.00 Ry     beta= 0.70
     Davidson diagonalization with overlap
     ethr =  3.43E-09,  avg # of iterations =  1.1

     total cpu time spent up to now is       54.3 secs

     total energy              =    -362.92033907 Ry
     estimated scf accuracy    <       0.00000055 Ry

     iteration #  6     ecut=    80.00 Ry     beta= 0.70
     Davidson diagonalization with overlap
     ethr =  1.82E-09,  avg # of iterations =  1.5

     total cpu time spent up to now is       56.8 secs

     total energy              =    -362.92033899 Ry
     estimated scf accuracy    <       0.00000033 Ry

     iteration #  7     ecut=    80.00 Ry     beta= 0.70
     Davidson diagonalization with overlap
     ethr =  1.08E-09,  avg # of iterations =  2.0

     total cpu time spent up to now is       59.4 secs

     total energy              =    -362.92033896 Ry
     estimated scf accuracy    <       0.00000010 Ry

     iteration #  8     ecut=    80.00 Ry     beta= 0.70
     Davidson diagonalization with overlap
     ethr =  3.29E-10,  avg # of iterations =  2.0

     total cpu time spent up to now is       62.1 secs

     total energy              =    -362.92033897 Ry
     estimated scf accuracy    <       0.00000001 Ry

     iteration #  9     ecut=    80.00 Ry     beta= 0.70
     Davidson diagonalization with overlap
     ethr =  3.39E-11,  avg # of iterations =  2.7

     total cpu time spent up to now is       64.9 secs

     End of self-consistent calculation

          k = 0.0000 0.0000 0.0000 ( 17037 PWs)   bands (ev):

   -29.3583 -29.3583 -29.2658 -29.2658 -29.2255 -29.1361 -29.1361 -29.0991
   -29.0422 -29.0422 -12.5805  -7.3033  -1.5961  -0.6814  -0.6814   0.9901
     2.1620   2.1620   3.6991   3.8315

     occupation numbers 
     1.0000   1.0000   1.0000   1.0000   1.0000   1.0000   1.0000   1.0000
     1.0000   1.0000   1.0000   1.0000   1.0000   1.0000   1.0000   0.0000
     0.0000   0.0000   0.0000   0.0000

          k = 0.0000 0.0770 0.0000 ( 17003 PWs)   bands (ev):

   -29.3579 -29.3555 -29.2655 -29.2640 -29.2245 -29.1373 -29.1363 -29.0997
   -29.0455 -29.0423 -12.5289  -7.2928  -1.5675  -1.2541  -0.8083   1.4059
     2.0560   2.2822   3.7755   3.8886

     occupation numbers 
     1.0000   1.0000   1.0000   1.0000   1.0000   1.0000   1.0000   1.0000
     1.0000   1.0000   1.0000   1.0000   1.0000   1.0000   1.0000   0.0000
     0.0000   0.0000   0.0000   0.0000

          k = 0.0000 0.1540 0.0000 ( 17005 PWs)   bands (ev):

   -29.3566 -29.3473 -29.2648 -29.2589 -29.2216 -29.1408 -29.1369 -29.1017
   -29.0552 -29.0428 -12.3750  -7.2752  -2.2156  -1.4935  -1.1136   1.2792
     2.4658   2.5450   3.9612   4.0696

     occupation numbers 
     1.0000   1.0000   1.0000   1.0000   1.0000   1.0000   1.0000   1.0000
     1.0000   1.0000   1.0000   1.0000   1.0000   1.0000   1.0000   0.0000
     0.0000   0.0000   0.0000   0.0000

          k = 0.0000 0.2310 0.0000 ( 16949 PWs)   bands (ev):

   -29.3548 -29.3342 -29.2640 -29.2508 -29.2163 -29.1465 -29.1385 -29.1048
   -29.0705 -29.0435 -12.1221  -7.2989  -3.1088  -1.4749  -1.4199   0.7963
     2.7827   2.8459   4.0972   4.3691

     occupation numbers 
     1.0000   1.0000   1.0000   1.0000   1.0000   1.0000   1.0000   1.0000
     1.0000   1.0000   1.0000   1.0000   1.0000   1.0000   1.0000   0.0000
     0.0000   0.0000   0.0000   0.0000

          k = 0.0000 0.3079 0.0000 ( 16947 PWs)   bands (ev):

   -29.3527 -29.3172 -29.2630 -29.2402 -29.2088 -29.1542 -29.1417 -29.1095
   -29.0890 -29.0443 -11.7773  -7.4504  -3.7616  -1.8142  -1.4525   0.4482
     2.6930   2.9064   4.3317   4.6574

     occupation numbers 
     1.0000   1.0000   1.0000   1.0000   1.0000   1.0000   1.0000   1.0000
     1.0000   1.0000   1.0000   1.0000   1.0000   1.0000   1.0000   0.0000
     0.0000   0.0000   0.0000   0.0000

          k = 0.0000 0.3849 0.0000 ( 16966 PWs)   bands (ev):

   -29.3506 -29.2988 -29.2604 -29.2279 -29.1997 -29.1638 -29.1473 -29.1206
   -29.1031 -29.0452 -11.3559  -7.8017  -4.0720  -2.0910  -1.6989   0.3915
     2.2784   2.9290   4.6945   4.8206

     occupation numbers 
     1.0000   1.0000   1.0000   1.0000   1.0000   1.0000   1.0000   1.0000
     1.0000   1.0000   1.0000   1.0000   1.0000   1.0000   1.0000   0.0000
     0.0000   0.0000   0.0000   0.0000

          k = 0.0000 0.4619 0.0000 ( 16974 PWs)   bands (ev):

   -29.3490 -29.2847 -29.2525 -29.2146 -29.1912 -29.1750 -29.1558 -29.1389
   -29.1076 -29.0459 -10.8970  -8.2955  -4.0831  -2.2844  -2.0781   0.5670
     1.8765   2.9060   4.4695   5.3606

     occupation numbers 
     1.0000   1.0000   1.0000   1.0000   1.0000   1.0000   1.0000   1.0000
     1.0000   1.0000   1.0000   1.0000   1.0000   1.0000   1.0000   0.0000
     0.0000   0.0000   0.0000   0.0000

          k = 0.0000 0.5389 0.0000 ( 16956 PWs)   bands (ev):

   -29.3481 -29.2792 -29.2402 -29.2011 -29.1886 -29.1874 -29.1612 -29.1527
   -29.1091 -29.0463 -10.5235  -8.7174  -3.9780  -2.3834  -2.3773   0.7862
     1.5902   2.8832   4.2473   5.9979

     occupation numbers 
     1.0000   1.0000   1.0000   1.0000   1.0000   1.0000   1.0000   1.0000
     1.0000   1.0000   1.0000   1.0000   1.0000   1.0000   1.0000   0.0000
     0.0000   0.0000   0.0000   0.0000

          k = 0.0667 0.1155 0.0000 ( 17017 PWs)   bands (ev):

   -29.3570 -29.3500 -29.2648 -29.2608 -29.2226 -29.1397 -29.1366 -29.1010
   -29.0520 -29.0427 -12.4262  -7.2785  -1.9269  -1.5162  -1.0860   1.7737
     1.7959   2.6316   3.9268   3.9915

     occupation numbers 
     1.0000   1.0000   1.0000   1.0000   1.0000   1.0000   1.0000   1.0000
     1.0000   1.0000   1.0000   1.0000   1.0000   1.0000   1.0000   0.0000
     0.0000   0.0000   0.0000   0.0000

          k = 0.0667 0.1925 0.0000 ( 16948 PWs)   bands (ev):

   -29.3555 -29.3393 -29.2637 -29.2547 -29.2183 -29.1446 -29.1374 -29.1036
   -29.0645 -29.0433 -12.2226  -7.2800  -2.7532  -1.5353  -1.4217   1.3203
     2.2389   2.9887   4.1064   4.2257

     occupation numbers 
     1.0000   1.0000   1.0000   1.0000   1.0000   1.0000   1.0000   1.0000
     1.0000   1.0000   1.0000   1.0000   1.0000   1.0000   1.0000   0.0000
     0.0000   0.0000   0.0000   0.0000

          k = 0.0667 0.2694 0.0000 ( 16946 PWs)   bands (ev):

   -29.3536 -29.3241 -29.2626 -29.2461 -29.2115 -29.1517 -29.1392 -29.1074
   -29.0816 -29.0442 -11.9232  -7.3644  -3.4750  -1.9490  -1.3872   0.8828
     2.5513   2.9895   4.2454   4.5409

     occupation numbers 
     1.0000   1.0000   1.0000   1.0000   1.0000   1.0000   1.0000   1.0000
     1.0000   1.0000   1.0000   1.0000   1.0000   1.0000   1.0000   0.0000
     0.0000   0.0000   0.0000   0.0000

          k = 0.0667 0.3464 0.0000 ( 16963 PWs)   bands (ev):

   -29.3515 -29.3060 -29.2609 -29.2353 -29.2027 -29.1609 -29.1429 -29.1145
   -29.0991 -29.0451 -11.5380  -7.6186  -3.9300  -2.2943  -1.4956   0.6496
     2.6156   2.6824   4.5712   4.8257

     occupation numbers 
     1.0000   1.0000   1.0000   1.0000   1.0000   1.0000   1.0000   1.0000
     1.0000   1.0000   1.0000   1.0000   1.0000   1.0000   1.0000   0.0000
     0.0000   0.0000   0.0000   0.0000

          k = 0.0667 0.4234 0.0000 ( 16975 PWs)   bands (ev):

   -29.3496 -29.2886 -29.2563 -29.2231 -29.1931 -29.1717 -29.1493 -29.1309
   -29.1073 -29.0460 -11.0905  -8.0574  -4.0739  -2.5321  -1.8034   0.6992
     2.1669   2.7076   4.7026   5.1249

     occupation numbers 
     1.0000   1.0000   1.0000   1.0000   1.0000   1.0000   1.0000   1.0000
     1.0000   1.0000   1.0000   1.0000   1.0000   1.0000   1.0000   0.0000
     0.0000   0.0000   0.0000   0.0000

          k = 0.0667 0.5004 0.0000 ( 16992 PWs)   bands (ev):

   -29.3484 -29.2787 -29.2450 -29.2102 -29.1881 -29.1820 -29.1580 -29.1475
   -29.1098 -29.0466 -10.6474  -8.5493  -4.0211  -2.6320  -2.1855   0.9384
     1.7547   2.7196   4.4168   5.7404

     occupation numbers 
     1.0000   1.0000   1.0000   1.0000   1.0000   1.0000   1.0000   1.0000
     1.0000   1.0000   1.0000   1.0000   1.0000   1.0000   1.0000   0.0000
     0.0000   0.0000   0.0000   0.0000

          k = 0.0667 0.5774 0.0000 ( 16980 PWs)   bands (ev):

   -29.3479 -29.2764 -29.2364 -29.1981 -29.1979 -29.1842 -29.1584 -29.1569
   -29.1105 -29.0468 -10.4208  -8.8020  -3.9664  -2.6020  -2.4147   1.1544
     1.4967   2.7276   4.2811   6.3627

     occupation numbers 
     1.0000   1.0000   1.0000   1.0000   1.0000   1.0000   1.0000   1.0000
     1.0000   1.0000   1.0000   1.0000   1.0000   1.0000   1.0000   0.0000
     0.0000   0.0000   0.0000   0.0000

          k = 0.1333 0.2310 0.0000 ( 16939 PWs)   bands (ev):

   -29.3539 -29.3264 -29.2615 -29.2492 -29.2122 -29.1512 -29.1379 -29.1068
   -29.0789 -29.0442 -11.9722  -7.3391  -3.2891  -2.1444  -1.3752   1.4194
     2.0989   3.1530   4.3578   4.3793

     occupation numbers 
     1.0000   1.0000   1.0000   1.0000   1.0000   1.0000   1.0000   1.0000
     1.0000   1.0000   1.0000   1.0000   1.0000   1.0000   1.0000   0.0000
     0.0000   0.0000   0.0000   0.0000

          k = 0.1333 0.3079 0.0000 ( 16963 PWs)   bands (ev):

   -29.3520 -29.3096 -29.2592 -29.2417 -29.2035 -29.1603 -29.1394 -29.1122
   -29.0961 -29.0454 -11.6304  -7.5245  -3.7062  -2.6757  -1.4014   1.2172
     2.1684   3.0637   4.5456   4.7409

     occupation numbers 
     1.0000   1.0000   1.0000   1.0000   1.0000   1.0000   1.0000   1.0000
     1.0000   1.0000   1.0000   1.0000   1.0000   1.0000   1.0000   0.0000
     0.0000   0.0000   0.0000   0.0000

          k = 0.1333 0.3849 0.0000 ( 16991 PWs)   bands (ev):

   -29.3502 -29.2909 -29.2562 -29.2320 -29.1933 -29.1713 -29.1427 -29.1254
   -29.1081 -29.0465 -11.2119  -7.8838  -3.9330  -3.0141  -1.5980   1.0936
     2.1288   2.8295   4.8687   5.0792

     occupation numbers 
     1.0000   1.0000   1.0000   1.0000   1.0000   1.0000   1.0000   1.0000
     1.0000   1.0000   1.0000   1.0000   1.0000   1.0000   1.0000   0.0000
     0.0000   0.0000   0.0000   0.0000

          k = 0.1333 0.4619 0.0000 ( 16984 PWs)   bands (ev):

   -29.3487 -29.2759 -29.2487 -29.2206 -29.1864 -29.1812 -29.1503 -29.1428
   -29.1123 -29.0475 -10.7524  -8.3643  -4.0131  -3.1091  -1.9569   1.1526
     2.0089   2.6225   4.7759   5.5649

     occupation numbers 
     1.0000   1.0000   1.0000   1.0000   1.0000   1.0000   1.0000   1.0000
     1.0000   1.0000   1.0000   1.0000   1.0000   1.0000   1.0000   0.0000
     0.0000   0.0000   0.0000   0.0000

          k = 0.1333 0.5389 0.0000 ( 16984 PWs)   bands (ev):

   -29.3479 -29.2703 -29.2356 -29.2094 -29.1984 -29.1784 -29.1598 -29.1516
   -29.1140 -29.0480 -10.3689  -8.7820  -4.0425  -2.9900  -2.3245   1.2767
     1.8918   2.5185   4.5442   6.2331

     occupation numbers 
     1.0000   1.0000   1.0000   1.0000   1.0000   1.0000   1.0000   1.0000
     1.0000   1.0000   1.0000   1.0000   1.0000   1.0000   1.0000   0.0000
     0.0000   0.0000   0.0000   0.0000

          k = 0.2000 0.3464 0.0000 ( 16951 PWs)   bands (ev):

   -29.3504 -29.2917 -29.2550 -29.2364 -29.1932 -29.1713 -29.1399 -29.1233
   -29.1086 -29.0468 -11.2532  -7.8197  -3.7589  -3.3291  -1.5259   1.4718
     1.7107   3.2173   4.9030   5.0351

     occupation numbers 
     1.0000   1.0000   1.0000   1.0000   1.0000   1.0000   1.0000   1.0000
     1.0000   1.0000   1.0000   1.0000   1.0000   1.0000   1.0000   0.0000
     0.0000   0.0000   0.0000   0.0000

          k = 0.2000 0.4234 0.0000 ( 16988 PWs)   bands (ev):

   -29.3490 -29.2732 -29.2503 -29.2281 -29.1848 -29.1820 -29.1434 -29.1406
   -29.1150 -29.0482 -10.8112  -8.2420  -3.8971  -3.5373  -1.7973   1.2714
     1.7809   3.1638   5.1962   5.5027

     occupation numbers 
     1.0000   1.0000   1.0000   1.0000   1.0000   1.0000   1.0000   1.0000
     1.0000   1.0000   1.0000   1.0000   1.0000   1.0000   1.0000   0.0000
     0.0000   0.0000   0.0000   0.0000

          k = 0.2000 0.5004 0.0000 ( 16974 PWs)   bands (ev):

   -29.3480 -29.2617 -29.2395 -29.2176 -29.1989 -29.1740 -29.1611 -29.1445
   -29.1186 -29.0493 -10.3583  -8.7084  -4.1749  -3.2758  -2.1677   1.0282
     2.1210   2.8963   5.0995   6.0917

     occupation numbers 
     1.0000   1.0000   1.0000   1.0000   1.0000   1.0000   1.0000   1.0000
     1.0000   1.0000   1.0000   1.0000   1.0000   1.0000   1.0000   0.0000
     0.0000   0.0000   0.0000   0.0000

          k = 0.2000 0.5774 0.0000 ( 16978 PWs)   bands (ev):

   -29.3476 -29.2593 -29.2278 -29.2131 -29.2076 -29.1766 -29.1644 -29.1468
   -29.1198 -29.0496 -10.1063  -8.9700  -4.2714  -3.0685  -2.4113   0.9473
     2.4791   2.5582   5.0060   6.3942

     occupation numbers 
     1.0000   1.0000   1.0000   1.0000   1.0000   1.0000   1.0000   1.0000
     1.0000   1.0000   1.0000   1.0000   1.0000   1.0000   1.0000   0.0000
     0.0000   0.0000   0.0000   0.0000

          k = 0.2667 0.4619 0.0000 ( 16999 PWs)   bands (ev):

   -29.3480 -29.2551 -29.2448 -29.2203 -29.1990 -29.1724 -29.1614 -29.1409
   -29.1212 -29.0498 -10.3594  -8.6693  -4.2445  -3.3695  -2.0896   0.9075
     2.0924   3.2262   5.8067   5.9541

     occupation numbers 
     1.0000   1.0000   1.0000   1.0000   1.0000   1.0000   1.0000   1.0000
     1.0000   1.0000   1.0000   1.0000   1.0000   1.0000   1.0000   0.0000
     0.0000   0.0000   0.0000   0.0000

          k = 0.2667 0.5389 0.0000 ( 16995 PWs)   bands (ev):

   -29.3474 -29.2465 -29.2330 -29.2152 -29.2085 -29.1790 -29.1658 -29.1402
   -29.1258 -29.0507  -9.9313  -9.0872  -4.4821  -3.0397  -2.4210   0.6639
     2.4970   2.9923   5.8600   6.0311

     occupation numbers 
     1.0000   1.0000   1.0000   1.0000   1.0000   1.0000   1.0000   1.0000
     1.0000   1.0000   1.0000   1.0000   1.0000   1.0000   1.0000   0.0000
     0.0000   0.0000   0.0000   0.0000

          k = 0.3334 0.5774 0.0000 ( 17013 PWs)   bands (ev):

   -29.3473 -29.2329 -29.2299 -29.2299 -29.1949 -29.1949 -29.1639 -29.1335
   -29.1335 -29.0512  -9.4992  -9.4992  -4.6080  -2.7199  -2.7199   0.5143
     2.8251   2.8251   5.8286   6.7918

     occupation numbers 
     1.0000   1.0000   1.0000   1.0000   1.0000   1.0000   1.0000   1.0000
     1.0000   1.0000   1.0000   1.0000   1.0000   1.0000   1.0000   0.0000
     0.0000   0.0000   0.0000   0.0000

     highest occupied, lowest unoccupied level (ev):    -0.6814    0.3915

!    total energy              =    -362.92033897 Ry
     estimated scf accuracy    <          5.2E-11 Ry

     The total energy is the sum of the following terms:
     one-electron contribution =    -802.24828495 Ry
     hartree contribution      =     405.32587642 Ry
     xc contribution           =     -89.50977176 Ry
     ewald contribution        =     123.51184131 Ry

     convergence has been achieved in   9 iterations

     Forces acting on atoms (cartesian axes, Ry/au):

     atom    1 type  1   force =     0.00000000    0.00000000   -0.00001137
     atom    2 type  1   force =     0.00000000    0.00000000    0.00001137
     The non-local contrib.  to forces
     atom    1 type  1   force =     0.00000000    0.00000000    0.59923409
     atom    2 type  1   force =    -0.00000000   -0.00000000   -0.59919909
     The ionic contribution  to forces
     atom    1 type  1   force =    -0.00000001    0.00000001  -37.24041300
     atom    2 type  1   force =     0.00000001   -0.00000001   37.24041300
     The local contribution  to forces
     atom    1 type  1   force =    -0.00000000   -0.00000000   36.64928808
     atom    2 type  1   force =     0.00000043   -0.00000025  -36.64926324
     The core correction contribution to forces
     atom    1 type  1   force =     0.00000000    0.00000000   -0.00812959
     atom    2 type  1   force =     0.00000002   -0.00000001    0.00813003
     The Hubbard contrib.    to forces
     atom    1 type  1   force =     0.00000000    0.00000000    0.00000000
     atom    2 type  1   force =     0.00000000    0.00000000    0.00000000
     The SCF correction term to forces
     atom    1 type  1   force =    -0.00000000    0.00000000    0.00000000
     atom    2 type  1   force =     0.00000000   -0.00000000   -0.00004962

     Total force =     0.000011     Total SCF correction =     0.000050
     SCF correction compared to forces is large: reduce conv_thr to get better values


     Computing stress (Cartesian axis) and pressure

          total   stress  (Ry/bohr**3)                   (kbar)     P=       -0.08
   0.00000016   0.00000000  -0.00000000            0.02        0.00       -0.00
  -0.00000000   0.00000016  -0.00000000           -0.00        0.02       -0.00
   0.00000000   0.00000000  -0.00000205            0.00        0.00       -0.30

     kinetic stress (kbar)  14800.07      0.00      0.00
                                0.00  14800.07      0.00
                                0.00      0.00  14830.63

     local   stress (kbar) -70194.01      0.00     -0.00
                                0.00 -70194.01      0.00
                               -0.00      0.00  65557.12

     nonloc. stress (kbar)  -6416.19     -0.00      0.00
                               -0.00  -6416.19      0.00
                               -0.00     -0.00  -6400.17

     hartree stress (kbar)  36031.19      0.00     -0.00
                                0.00  36031.19     -0.00
                               -0.00     -0.00 -29609.73

     exc-cor stress (kbar)   3581.04      0.00      0.00
                                0.00   3581.04      0.00
                                0.00      0.00   3581.04

     corecor stress (kbar)  -5499.68     -0.00      0.00
                               -0.00  -5499.68     -0.00
                                0.00     -0.00  -5500.24

     ewald   stress (kbar)  27697.61     -0.00      0.00
                               -0.00  27697.61     -0.00
                                0.00     -0.00 -42458.95

     hubbard stress (kbar)      0.00      0.00      0.00
                                0.00      0.00      0.00
                                0.00      0.00      0.00

     DFT-D   stress (kbar)      0.00      0.00      0.00
                                0.00      0.00      0.00
                                0.00      0.00      0.00

     XDM     stress (kbar)      0.00      0.00      0.00
                                0.00      0.00      0.00
                                0.00      0.00      0.00

     dft-nl  stress (kbar)      0.00      0.00      0.00
                                0.00      0.00      0.00
                                0.00      0.00      0.00

     TS-vdW  stress (kbar)      0.00      0.00      0.00
                                0.00      0.00      0.00
                                0.00      0.00      0.00


     Energy error            =      3.3E-07
     Gradient error          =      1.1E-05
     Cell gradient error     =      1.6E-07


     number of scf cycles    =   3
     number of bfgs steps    =   2

     enthalpy old            =    -362.9203386439 Ry
     enthalpy new            =    -362.9203389728 Ry

     CASE: enthalpy_new < enthalpy_old

     small trust_radius: resetting bfgs history

     new trust radius        =       0.0000306524 bohr
     new conv_thr            =       0.0000000100 Ry

     new unit-cell volume =   1404.52939 a.u.^3 (   208.12978 Ang^3 )
     density =      0.19166 g/cm^3

CELL_PARAMETERS (alat=  7.56457368)
   0.999932258  -0.000000000   0.000000000
  -0.499966129   0.865966738   0.000000000
   0.000000000   0.000000000   3.747189608

ATOMIC_POSITIONS (crystal)
Sb            0.0000000000        0.0000000000        0.5000000000    0   0   0
Sb            0.3333333330        0.6666666670        0.6086469771



     Writing output data file ./tmp/Sb.save/
     NEW-OLD atomic charge density approx. for the potential
     extrapolated charge   30.00025, renormalised to   30.00000

     total cpu time spent up to now is       67.7 secs

     Self-consistent Calculation

     iteration #  1     ecut=    80.00 Ry     beta= 0.70
     Davidson diagonalization with overlap
     ethr =  1.00E-06,  avg # of iterations =  1.0

     Threshold (ethr) on eigenvalues was too large:
     Diagonalizing with lowered threshold

     Davidson diagonalization with overlap
     ethr =  6.77E-11,  avg # of iterations =  2.0

     total cpu time spent up to now is       73.2 secs

     total energy              =    -362.92033894 Ry
     estimated scf accuracy    <       0.00000002 Ry

     iteration #  2     ecut=    80.00 Ry     beta= 0.70
     Davidson diagonalization with overlap
     ethr =  7.29E-11,  avg # of iterations =  3.2

     total cpu time spent up to now is       77.0 secs

     total energy              =    -362.92033897 Ry
     estimated scf accuracy    <       0.00000006 Ry

     iteration #  3     ecut=    80.00 Ry     beta= 0.70
     Davidson diagonalization with overlap
     ethr =  7.29E-11,  avg # of iterations =  2.0

     total cpu time spent up to now is       79.9 secs

     total energy              =    -362.92033898 Ry
     estimated scf accuracy    <       0.00000001 Ry

     iteration #  4     ecut=    80.00 Ry     beta= 0.70
     Davidson diagonalization with overlap
     ethr =  3.56E-11,  avg # of iterations =  1.0

     total cpu time spent up to now is       82.5 secs

     End of self-consistent calculation

          k = 0.0000 0.0000 0.0000 ( 17037 PWs)   bands (ev):

   -29.3590 -29.3590 -29.2665 -29.2665 -29.2261 -29.1368 -29.1368 -29.0997
   -29.0428 -29.0428 -12.5810  -7.3037  -1.5964  -0.6819  -0.6819   0.9896
     2.1615   2.1615   3.6990   3.8314

     occupation numbers 
     1.0000   1.0000   1.0000   1.0000   1.0000   1.0000   1.0000   1.0000
     1.0000   1.0000   1.0000   1.0000   1.0000   1.0000   1.0000   0.0000
     0.0000   0.0000   0.0000   0.0000

          k = 0.0000 0.0770 0.0000 ( 17003 PWs)   bands (ev):

   -29.3585 -29.3562 -29.2662 -29.2647 -29.2252 -29.1380 -29.1370 -29.1004
   -29.0462 -29.0430 -12.5294  -7.2932  -1.5678  -1.2546  -0.8089   1.4053
     2.0555   2.2817   3.7754   3.8886

     occupation numbers 
     1.0000   1.0000   1.0000   1.0000   1.0000   1.0000   1.0000   1.0000
     1.0000   1.0000   1.0000   1.0000   1.0000   1.0000   1.0000   0.0000
     0.0000   0.0000   0.0000   0.0000

          k = 0.0000 0.1540 0.0000 ( 17005 PWs)   bands (ev):

   -29.3573 -29.3480 -29.2655 -29.2596 -29.2223 -29.1415 -29.1376 -29.1023
   -29.0559 -29.0435 -12.3755  -7.2756  -2.2161  -1.4938  -1.1141   1.2787
     2.4653   2.5445   3.9610   4.0695

     occupation numbers 
     1.0000   1.0000   1.0000   1.0000   1.0000   1.0000   1.0000   1.0000
     1.0000   1.0000   1.0000   1.0000   1.0000   1.0000   1.0000   0.0000
     0.0000   0.0000   0.0000   0.0000

          k = 0.0000 0.2310 0.0000 ( 16949 PWs)   bands (ev):

   -29.3555 -29.3349 -29.2647 -29.2515 -29.2170 -29.1472 -29.1392 -29.1054
   -29.0712 -29.0442 -12.1226  -7.2993  -3.1092  -1.4754  -1.4202   0.7959
     2.7822   2.8455   4.0971   4.3690

     occupation numbers 
     1.0000   1.0000   1.0000   1.0000   1.0000   1.0000   1.0000   1.0000
     1.0000   1.0000   1.0000   1.0000   1.0000   1.0000   1.0000   0.0000
     0.0000   0.0000   0.0000   0.0000

          k = 0.0000 0.3079 0.0000 ( 16947 PWs)   bands (ev):

   -29.3533 -29.3179 -29.2637 -29.2409 -29.2095 -29.1549 -29.1423 -29.1101
   -29.0897 -29.0450 -11.7777  -7.4509  -3.7620  -1.8147  -1.4528   0.4478
     2.6926   2.9059   4.3316   4.6573

     occupation numbers 
     1.0000   1.0000   1.0000   1.0000   1.0000   1.0000   1.0000   1.0000
     1.0000   1.0000   1.0000   1.0000   1.0000   1.0000   1.0000   0.0000
     0.0000   0.0000   0.0000   0.0000

          k = 0.0000 0.3849 0.0000 ( 16966 PWs)   bands (ev):

   -29.3513 -29.2995 -29.2611 -29.2286 -29.2004 -29.1645 -29.1480 -29.1213
   -29.1038 -29.0459 -11.3563  -7.8021  -4.0724  -2.0915  -1.6993   0.3911
     2.2780   2.9285   4.6943   4.8205

     occupation numbers 
     1.0000   1.0000   1.0000   1.0000   1.0000   1.0000   1.0000   1.0000
     1.0000   1.0000   1.0000   1.0000   1.0000   1.0000   1.0000   0.0000
     0.0000   0.0000   0.0000   0.0000

          k = 0.0000 0.4619 0.0000 ( 16974 PWs)   bands (ev):

   -29.3496 -29.2854 -29.2531 -29.2153 -29.1919 -29.1757 -29.1564 -29.1396
   -29.1083 -29.0466 -10.8975  -8.2960  -4.0835  -2.2849  -2.0785   0.5666
     1.8761   2.9055   4.4692   5.3605

     occupation numbers 
     1.0000   1.0000   1.0000   1.0000   1.0000   1.0000   1.0000   1.0000
     1.0000   1.0000   1.0000   1.0000   1.0000   1.0000   1.0000   0.0000
     0.0000   0.0000   0.0000   0.0000

          k = 0.0000 0.5389 0.0000 ( 16956 PWs)   bands (ev):

   -29.3487 -29.2799 -29.2409 -29.2018 -29.1893 -29.1881 -29.1619 -29.1534
   -29.1097 -29.0469 -10.5240  -8.7178  -3.9784  -2.3839  -2.3777   0.7858
     1.5898   2.8828   4.2470   5.9977

     occupation numbers 
     1.0000   1.0000   1.0000   1.0000   1.0000   1.0000   1.0000   1.0000
     1.0000   1.0000   1.0000   1.0000   1.0000   1.0000   1.0000   0.0000
     0.0000   0.0000   0.0000   0.0000

          k = 0.0667 0.1155 0.0000 ( 17017 PWs)   bands (ev):

   -29.3577 -29.3507 -29.2655 -29.2615 -29.2232 -29.1404 -29.1373 -29.1017
   -29.0527 -29.0433 -12.4266  -7.2789  -1.9274  -1.5165  -1.0865   1.7732
     1.7954   2.6311   3.9266   3.9914

     occupation numbers 
     1.0000   1.0000   1.0000   1.0000   1.0000   1.0000   1.0000   1.0000
     1.0000   1.0000   1.0000   1.0000   1.0000   1.0000   1.0000   0.0000
     0.0000   0.0000   0.0000   0.0000

          k = 0.0667 0.1925 0.0000 ( 16948 PWs)   bands (ev):

   -29.3562 -29.3400 -29.2644 -29.2554 -29.2190 -29.1453 -29.1381 -29.1043
   -29.0652 -29.0440 -12.2231  -7.2804  -2.7536  -1.5358  -1.4220   1.3199
     2.2384   2.9882   4.1062   4.2256

     occupation numbers 
     1.0000   1.0000   1.0000   1.0000   1.0000   1.0000   1.0000   1.0000
     1.0000   1.0000   1.0000   1.0000   1.0000   1.0000   1.0000   0.0000
     0.0000   0.0000   0.0000   0.0000

          k = 0.0667 0.2694 0.0000 ( 16946 PWs)   bands (ev):

   -29.3542 -29.3248 -29.2633 -29.2468 -29.2122 -29.1524 -29.1399 -29.1081
   -29.0823 -29.0448 -11.9236  -7.3649  -3.4754  -1.9495  -1.3875   0.8824
     2.5508   2.9890   4.2453   4.5408

     occupation numbers 
[...]
     1.0000   1.0000   1.0000   1.0000   1.0000   1.0000   1.0000   0.0000
     0.0000   0.0000   0.0000   0.0000

          k = 0.0000 0.0770 0.0000 ( 16999 PWs)   bands (ev):

   -29.3579 -29.3556 -29.2656 -29.2641 -29.2246 -29.1374 -29.1364 -29.0998
   -29.0456 -29.0424 -12.5289  -7.2928  -1.5676  -1.2542  -0.8084   1.4058
     2.0559   2.2821   3.7755   3.8885

     occupation numbers 
     1.0000   1.0000   1.0000   1.0000   1.0000   1.0000   1.0000   1.0000
     1.0000   1.0000   1.0000   1.0000   1.0000   1.0000   1.0000   0.0000
     0.0000   0.0000   0.0000   0.0000

          k = 0.0000 0.1540 0.0000 ( 16997 PWs)   bands (ev):

   -29.3567 -29.3474 -29.2649 -29.2590 -29.2216 -29.1409 -29.1370 -29.1017
   -29.0553 -29.0428 -12.3750  -7.2753  -2.2156  -1.4936  -1.1136   1.2792
     2.4657   2.5449   3.9611   4.0695

     occupation numbers 
     1.0000   1.0000   1.0000   1.0000   1.0000   1.0000   1.0000   1.0000
     1.0000   1.0000   1.0000   1.0000   1.0000   1.0000   1.0000   0.0000
     0.0000   0.0000   0.0000   0.0000

          k = 0.0000 0.2310 0.0000 ( 16949 PWs)   bands (ev):

   -29.3549 -29.3343 -29.2641 -29.2508 -29.2164 -29.1466 -29.1386 -29.1048
   -29.0706 -29.0435 -12.1221  -7.2990  -3.1088  -1.4749  -1.4199   0.7963
     2.7826   2.8458   4.0972   4.3690

     occupation numbers 
     1.0000   1.0000   1.0000   1.0000   1.0000   1.0000   1.0000   1.0000
     1.0000   1.0000   1.0000   1.0000   1.0000   1.0000   1.0000   0.0000
     0.0000   0.0000   0.0000   0.0000

          k = 0.0000 0.3079 0.0000 ( 16943 PWs)   bands (ev):

   -29.3527 -29.3173 -29.2631 -29.2403 -29.2088 -29.1543 -29.1417 -29.1095
   -29.0891 -29.0444 -11.7772  -7.4505  -3.7616  -1.8142  -1.4525   0.4482
     2.6929   2.9063   4.3317   4.6573

     occupation numbers 
     1.0000   1.0000   1.0000   1.0000   1.0000   1.0000   1.0000   1.0000
     1.0000   1.0000   1.0000   1.0000   1.0000   1.0000   1.0000   0.0000
     0.0000   0.0000   0.0000   0.0000

          k = 0.0000 0.3849 0.0000 ( 16962 PWs)   bands (ev):

   -29.3507 -29.2989 -29.2605 -29.2280 -29.1998 -29.1639 -29.1474 -29.1207
   -29.1031 -29.0452 -11.3558  -7.8017  -4.0720  -2.0910  -1.6989   0.3915
     2.2783   2.9289   4.6944   4.8206

     occupation numbers 
     1.0000   1.0000   1.0000   1.0000   1.0000   1.0000   1.0000   1.0000
     1.0000   1.0000   1.0000   1.0000   1.0000   1.0000   1.0000   0.0000
     0.0000   0.0000   0.0000   0.0000

          k = 0.0000 0.4619 0.0000 ( 16974 PWs)   bands (ev):

   -29.3490 -29.2847 -29.2525 -29.2147 -29.1913 -29.1751 -29.1558 -29.1390
   -29.1077 -29.0459 -10.8970  -8.2955  -4.0831  -2.2844  -2.0782   0.5669
     1.8765   2.9059   4.4694   5.3605

     occupation numbers 
     1.0000   1.0000   1.0000   1.0000   1.0000   1.0000   1.0000   1.0000
     1.0000   1.0000   1.0000   1.0000   1.0000   1.0000   1.0000   0.0000
     0.0000   0.0000   0.0000   0.0000

          k = 0.0000 0.5389 0.0000 ( 16956 PWs)   bands (ev):

   -29.3481 -29.2793 -29.2402 -29.2012 -29.1886 -29.1875 -29.1613 -29.1528
   -29.1091 -29.0463 -10.5235  -8.7174  -3.9780  -2.3834  -2.3774   0.7862
     1.5901   2.8831   4.2472   5.9979

     occupation numbers 
     1.0000   1.0000   1.0000   1.0000   1.0000   1.0000   1.0000   1.0000
     1.0000   1.0000   1.0000   1.0000   1.0000   1.0000   1.0000   0.0000
     0.0000   0.0000   0.0000   0.0000

          k = 0.0667 0.1155 0.0000 ( 17017 PWs)   bands (ev):

   -29.3571 -29.3501 -29.2649 -29.2609 -29.2226 -29.1398 -29.1367 -29.1011
   -29.0521 -29.0427 -12.4261  -7.2786  -1.9269  -1.5162  -1.0860   1.7737
     1.7958   2.6315   3.9267   3.9914

     occupation numbers 
     1.0000   1.0000   1.0000   1.0000   1.0000   1.0000   1.0000   1.0000
     1.0000   1.0000   1.0000   1.0000   1.0000   1.0000   1.0000   0.0000
     0.0000   0.0000   0.0000   0.0000

          k = 0.0667 0.1925 0.0000 ( 16944 PWs)   bands (ev):

   -29.3556 -29.3394 -29.2638 -29.2548 -29.2184 -29.1447 -29.1374 -29.1036
   -29.0646 -29.0434 -12.2226  -7.2801  -2.7532  -1.5354  -1.4217   1.3203
     2.2388   2.9886   4.1063   4.2256

     occupation numbers 
     1.0000   1.0000   1.0000   1.0000   1.0000   1.0000   1.0000   1.0000
     1.0000   1.0000   1.0000   1.0000   1.0000   1.0000   1.0000   0.0000
     0.0000   0.0000   0.0000   0.0000

          k = 0.0667 0.2694 0.0000 ( 16944 PWs)   bands (ev):

   -29.3536 -29.3242 -29.2626 -29.2461 -29.2116 -29.1518 -29.1393 -29.1075
   -29.0817 -29.0442 -11.9231  -7.3645  -3.4749  -1.9490  -1.3872   0.8828
     2.5512   2.9894   4.2454   4.5408

     occupation numbers 
     1.0000   1.0000   1.0000   1.0000   1.0000   1.0000   1.0000   1.0000
     1.0000   1.0000   1.0000   1.0000   1.0000   1.0000   1.0000   0.0000
     0.0000   0.0000   0.0000   0.0000

          k = 0.0667 0.3464 0.0000 ( 16959 PWs)   bands (ev):

   -29.3515 -29.3060 -29.2610 -29.2354 -29.2028 -29.1609 -29.1429 -29.1145
   -29.0991 -29.0452 -11.5379  -7.6187  -3.9300  -2.2943  -1.4957   0.6495
     2.6155   2.6823   4.5712   4.8256

     occupation numbers 
     1.0000   1.0000   1.0000   1.0000   1.0000   1.0000   1.0000   1.0000
     1.0000   1.0000   1.0000   1.0000   1.0000   1.0000   1.0000   0.0000
     0.0000   0.0000   0.0000   0.0000

          k = 0.0667 0.4234 0.0000 ( 16973 PWs)   bands (ev):

   -29.3497 -29.2886 -29.2564 -29.2232 -29.1932 -29.1718 -29.1494 -29.1310
   -29.1074 -29.0461 -11.0904  -8.0575  -4.0739  -2.5321  -1.8035   0.6992
     2.1668   2.7075   4.7025   5.1248

     occupation numbers 
     1.0000   1.0000   1.0000   1.0000   1.0000   1.0000   1.0000   1.0000
     1.0000   1.0000   1.0000   1.0000   1.0000   1.0000   1.0000   0.0000
     0.0000   0.0000   0.0000   0.0000

          k = 0.0667 0.5004 0.0000 ( 16984 PWs)   bands (ev):

   -29.3484 -29.2788 -29.2450 -29.2103 -29.1881 -29.1821 -29.1580 -29.1475
   -29.1099 -29.0467 -10.6474  -8.5493  -4.0211  -2.6320  -2.1856   0.9384
     1.7547   2.7195   4.4168   5.7404

     occupation numbers 
     1.0000   1.0000   1.0000   1.0000   1.0000   1.0000   1.0000   1.0000
     1.0000   1.0000   1.0000   1.0000   1.0000   1.0000   1.0000   0.0000
     0.0000   0.0000   0.0000   0.0000

          k = 0.0667 0.5774 0.0000 ( 16980 PWs)   bands (ev):

   -29.3480 -29.2765 -29.2364 -29.1982 -29.1980 -29.1843 -29.1585 -29.1569
   -29.1106 -29.0469 -10.4208  -8.8020  -3.9664  -2.6020  -2.4148   1.1544
     1.4966   2.7275   4.2811   6.4508

     occupation numbers 
     1.0000   1.0000   1.0000   1.0000   1.0000   1.0000   1.0000   1.0000
     1.0000   1.0000   1.0000   1.0000   1.0000   1.0000   1.0000   0.0000
     0.0000   0.0000   0.0000   0.0000

          k = 0.1333 0.2310 0.0000 ( 16939 PWs)   bands (ev):

   -29.3540 -29.3265 -29.2616 -29.2492 -29.2123 -29.1513 -29.1380 -29.1069
   -29.0790 -29.0443 -11.9721  -7.3391  -3.2891  -2.1444  -1.3752   1.4193
     2.0988   3.1529   4.3578   4.3792

     occupation numbers 
     1.0000   1.0000   1.0000   1.0000   1.0000   1.0000   1.0000   1.0000
     1.0000   1.0000   1.0000   1.0000   1.0000   1.0000   1.0000   0.0000
     0.0000   0.0000   0.0000   0.0000

          k = 0.1333 0.3079 0.0000 ( 16961 PWs)   bands (ev):

   -29.3521 -29.3096 -29.2593 -29.2418 -29.2036 -29.1603 -29.1395 -29.1123
   -29.0962 -29.0454 -11.6304  -7.5246  -3.7062  -2.6757  -1.4014   1.2172
     2.1683   3.0636   4.5456   4.7408

     occupation numbers 
     1.0000   1.0000   1.0000   1.0000   1.0000   1.0000   1.0000   1.0000
     1.0000   1.0000   1.0000   1.0000   1.0000   1.0000   1.0000   0.0000
     0.0000   0.0000   0.0000   0.0000

          k = 0.1333 0.3849 0.0000 ( 16991 PWs)   bands (ev):

   -29.3503 -29.2910 -29.2563 -29.2321 -29.1934 -29.1714 -29.1428 -29.1254
   -29.1081 -29.0466 -11.2119  -7.8839  -3.9330  -3.0141  -1.5980   1.0936
     2.1288   2.8294   4.8687   5.0792

     occupation numbers 
     1.0000   1.0000   1.0000   1.0000   1.0000   1.0000   1.0000   1.0000
     1.0000   1.0000   1.0000   1.0000   1.0000   1.0000   1.0000   0.0000
     0.0000   0.0000   0.0000   0.0000

          k = 0.1333 0.4619 0.0000 ( 16984 PWs)   bands (ev):

   -29.3488 -29.2760 -29.2488 -29.2207 -29.1865 -29.1812 -29.1504 -29.1428
   -29.1124 -29.0476 -10.7524  -8.3643  -4.0132  -3.1091  -1.9570   1.1526
     2.0088   2.6224   4.7759   5.5649

     occupation numbers 
     1.0000   1.0000   1.0000   1.0000   1.0000   1.0000   1.0000   1.0000
     1.0000   1.0000   1.0000   1.0000   1.0000   1.0000   1.0000   0.0000
     0.0000   0.0000   0.0000   0.0000

          k = 0.1333 0.5389 0.0000 ( 16982 PWs)   bands (ev):

   -29.3480 -29.2703 -29.2356 -29.2094 -29.1984 -29.1784 -29.1599 -29.1516
   -29.1140 -29.0481 -10.3689  -8.7820  -4.0425  -2.9900  -2.3246   1.2766
     1.8918   2.5184   4.5442   6.2331

     occupation numbers 
     1.0000   1.0000   1.0000   1.0000   1.0000   1.0000   1.0000   1.0000
     1.0000   1.0000   1.0000   1.0000   1.0000   1.0000   1.0000   0.0000
     0.0000   0.0000   0.0000   0.0000

          k = 0.2000 0.3464 0.0000 ( 16951 PWs)   bands (ev):

   -29.3505 -29.2918 -29.2551 -29.2364 -29.1933 -29.1714 -29.1400 -29.1234
   -29.1087 -29.0469 -11.2532  -7.8198  -3.7589  -3.3291  -1.5260   1.4717
     1.7106   3.2172   4.9030   5.0351

     occupation numbers 
     1.0000   1.0000   1.0000   1.0000   1.0000   1.0000   1.0000   1.0000
     1.0000   1.0000   1.0000   1.0000   1.0000   1.0000   1.0000   0.0000
     0.0000   0.0000   0.0000   0.0000

          k = 0.2000 0.4234 0.0000 ( 16986 PWs)   bands (ev):

   -29.3490 -29.2733 -29.2503 -29.2282 -29.1848 -29.1821 -29.1435 -29.1407
   -29.1151 -29.0483 -10.8112  -8.2421  -3.8971  -3.5373  -1.7974   1.2714
     1.7809   3.1637   5.1962   5.5026

     occupation numbers 
     1.0000   1.0000   1.0000   1.0000   1.0000   1.0000   1.0000   1.0000
     1.0000   1.0000   1.0000   1.0000   1.0000   1.0000   1.0000   0.0000
     0.0000   0.0000   0.0000   0.0000

          k = 0.2000 0.5004 0.0000 ( 16974 PWs)   bands (ev):

   -29.3480 -29.2618 -29.2395 -29.2177 -29.1989 -29.1741 -29.1611 -29.1446
   -29.1186 -29.0493 -10.3583  -8.7084  -4.1749  -3.2758  -2.1678   1.0282
     2.1210   2.8962   5.0994   6.0918

     occupation numbers 
     1.0000   1.0000   1.0000   1.0000   1.0000   1.0000   1.0000   1.0000
     1.0000   1.0000   1.0000   1.0000   1.0000   1.0000   1.0000   0.0000
     0.0000   0.0000   0.0000   0.0000

          k = 0.2000 0.5774 0.0000 ( 16978 PWs)   bands (ev):

   -29.3477 -29.2594 -29.2278 -29.2131 -29.2076 -29.1767 -29.1645 -29.1469
   -29.1198 -29.0497 -10.1063  -8.9700  -4.2714  -3.0685  -2.4114   0.9472
     2.4791   2.5581   5.0059   6.3941

     occupation numbers 
     1.0000   1.0000   1.0000   1.0000   1.0000   1.0000   1.0000   1.0000
     1.0000   1.0000   1.0000   1.0000   1.0000   1.0000   1.0000   0.0000
     0.0000   0.0000   0.0000   0.0000

          k = 0.2667 0.4619 0.0000 ( 16999 PWs)   bands (ev):

   -29.3480 -29.2552 -29.2449 -29.2204 -29.1991 -29.1725 -29.1615 -29.1410
   -29.1213 -29.0498 -10.3594  -8.6693  -4.2445  -3.3696  -2.0896   0.9075
     2.0924   3.2261   5.8068   5.9541

     occupation numbers 
     1.0000   1.0000   1.0000   1.0000   1.0000   1.0000   1.0000   1.0000
     1.0000   1.0000   1.0000   1.0000   1.0000   1.0000   1.0000   0.0000
     0.0000   0.0000   0.0000   0.0000

          k = 0.2667 0.5389 0.0000 ( 16993 PWs)   bands (ev):

   -29.3475 -29.2466 -29.2331 -29.2153 -29.2085 -29.1790 -29.1659 -29.1403
   -29.1259 -29.0508  -9.9313  -9.0872  -4.4821  -3.0397  -2.4211   0.6638
     2.4969   2.9923   5.8600   6.0310

     occupation numbers 
     1.0000   1.0000   1.0000   1.0000   1.0000   1.0000   1.0000   1.0000
     1.0000   1.0000   1.0000   1.0000   1.0000   1.0000   1.0000   0.0000
     0.0000   0.0000   0.0000   0.0000

          k = 0.3334 0.5774 0.0000 ( 17013 PWs)   bands (ev):

   -29.3473 -29.2330 -29.2300 -29.2299 -29.1950 -29.1949 -29.1640 -29.1335
   -29.1335 -29.0513  -9.4992  -9.4992  -4.6080  -2.7199  -2.7199   0.5143
     2.8250   2.8250   5.8285   6.7917

     occupation numbers 
     1.0000   1.0000   1.0000   1.0000   1.0000   1.0000   1.0000   1.0000
     1.0000   1.0000   1.0000   1.0000   1.0000   1.0000   1.0000   0.0000
     0.0000   0.0000   0.0000   0.0000

     highest occupied, lowest unoccupied level (ev):    -0.6814    0.3915

!    total energy              =    -362.92033866 Ry
     estimated scf accuracy    <          9.7E-10 Ry

     The total energy is the sum of the following terms:
     one-electron contribution =    -802.24310103 Ry
     hartree contribution      =     405.32327848 Ry
     xc contribution           =     -89.50977114 Ry
     ewald contribution        =     123.50925503 Ry

     convergence has been achieved in   8 iterations

     Forces acting on atoms (cartesian axes, Ry/au):

     atom    1 type  1   force =     0.00000000    0.00000000    0.00005950
     atom    2 type  1   force =    -0.00000000   -0.00000000   -0.00005950
     The non-local contrib.  to forces
     atom    1 type  1   force =     0.00000000    0.00000000    0.59934309
     atom    2 type  1   force =    -0.00000000   -0.00000000   -0.59924899
     The ionic contribution  to forces
     atom    1 type  1   force =    -0.00000001    0.00000001  -37.24005499
     atom    2 type  1   force =     0.00000001   -0.00000001   37.24005499
     The local contribution  to forces
     atom    1 type  1   force =     0.00000000   -0.00000000   36.64865506
     atom    2 type  1   force =     0.00000043   -0.00000025  -36.64903144
     The core correction contribution to forces
     atom    1 type  1   force =     0.00000000    0.00000000   -0.00814296
     atom    2 type  1   force =     0.00000002   -0.00000001    0.00812830
     The Hubbard contrib.    to forces
     atom    1 type  1   force =     0.00000000    0.00000000    0.00000000
     atom    2 type  1   force =     0.00000000    0.00000000    0.00000000
     The SCF correction term to forces
     atom    1 type  1   force =     0.00000000   -0.00000000    0.00000000
     atom    2 type  1   force =    -0.00000000    0.00000000    0.00007192

     Total force =     0.000060     Total SCF correction =     0.000072
     SCF correction compared to forces is large: reduce conv_thr to get better values


     Computing stress (Cartesian axis) and pressure

          total   stress  (Ry/bohr**3)                   (kbar)     P=       -0.08
   0.00000019   0.00000000  -0.00000000            0.03        0.00       -0.00
  -0.00000000   0.00000019  -0.00000000           -0.00        0.03       -0.00
   0.00000000   0.00000000  -0.00000201            0.00        0.00       -0.30

     kinetic stress (kbar)  14799.95      0.00      0.00
                                0.00  14799.95      0.00
                                0.00      0.00  14830.51

     local   stress (kbar) -70192.79      0.00     -0.00
                                0.00 -70192.79      0.00
                               -0.00      0.00  65555.85

     nonloc. stress (kbar)  -6416.14     -0.00     -0.00
                               -0.00  -6416.14     -0.00
                               -0.00     -0.00  -6400.12

     hartree stress (kbar)  36030.58     -0.00     -0.00
                               -0.00  36030.58     -0.00
                               -0.00     -0.00 -29609.14

     exc-cor stress (kbar)   3581.01      0.00      0.00
                                0.00   3581.01      0.00
                                0.00      0.00   3581.01

     corecor stress (kbar)  -5499.63     -0.00      0.00
                               -0.00  -5499.63     -0.00
                                0.00     -0.00  -5500.20

     ewald   stress (kbar)  27697.05     -0.00      0.00
                               -0.00  27697.05     -0.00
                                0.00     -0.00 -42458.22

     hubbard stress (kbar)      0.00      0.00      0.00
                                0.00      0.00      0.00
                                0.00      0.00      0.00

     DFT-D   stress (kbar)      0.00      0.00      0.00
                                0.00      0.00      0.00
                                0.00      0.00      0.00

     XDM     stress (kbar)      0.00      0.00      0.00
                                0.00      0.00      0.00
                                0.00      0.00      0.00

     dft-nl  stress (kbar)      0.00      0.00      0.00
                                0.00      0.00      0.00
                                0.00      0.00      0.00

     TS-vdW  stress (kbar)      0.00      0.00      0.00
                                0.00      0.00      0.00
                                0.00      0.00      0.00



     Writing output data file ./tmp/Sb.save/

     init_run     :      2.81s CPU      2.91s WALL (       2 calls)
     electrons    :    112.56s CPU    117.85s WALL (       6 calls)
     update_pot   :      2.86s CPU      2.87s WALL (       4 calls)
     forces       :      3.32s CPU      3.52s WALL (       6 calls)
     stress       :      8.91s CPU      9.09s WALL (       6 calls)

     Called by init_run:
     wfcinit      :      1.70s CPU      1.79s WALL (       2 calls)
     wfcinit:atom :      0.03s CPU      0.03s WALL (      54 calls)
     wfcinit:wfcr :      1.63s CPU      1.71s WALL (      54 calls)
     potinit      :      0.34s CPU      0.35s WALL (       2 calls)
     hinit0       :      0.70s CPU      0.71s WALL (       2 calls)

     Called by electrons:
     c_bands      :     96.16s CPU    101.18s WALL (      37 calls)
     sum_band     :     16.14s CPU     16.37s WALL (      37 calls)
     v_of_rho     :      0.16s CPU      0.17s WALL (      38 calls)
     v_h          :      0.06s CPU      0.06s WALL (      38 calls)
     v_xc         :      0.13s CPU      0.14s WALL (      50 calls)
     mix_rho      :      0.09s CPU      0.11s WALL (      37 calls)

     Called by c_bands:
     init_us_2    :      1.27s CPU      1.43s WALL (    2376 calls)
     cegterg      :     93.36s CPU     98.27s WALL (     999 calls)

     Called by sum_band:
     sum_band:wei :      0.00s CPU      0.00s WALL (      37 calls)
     sum_band:loo :     16.02s CPU     16.24s WALL (      37 calls)
     sum_band:buf :      0.12s CPU      0.13s WALL (     999 calls)
     sum_band:ini :      0.55s CPU      0.64s WALL (     999 calls)

     Called by *egterg:
     cdiaghg      :      1.05s CPU      1.25s WALL (    3822 calls)
     cegterg:over :      5.70s CPU      6.64s WALL (    3066 calls)
     cegterg:upda :      2.71s CPU      3.31s WALL (    3066 calls)
     cegterg:last :      3.26s CPU      3.76s WALL (    2009 calls)
     h_psi        :     79.22s CPU     81.43s WALL (    4119 calls)
     g_psi        :      0.19s CPU      0.19s WALL (    3066 calls)

     Called by h_psi:
     h_psi:calbec :      4.50s CPU      5.17s WALL (    4119 calls)
     vloc_psi     :     71.21s CPU     71.89s WALL (    4119 calls)
     add_vuspsi   :      3.23s CPU      3.98s WALL (    4119 calls)

     General routines
     calbec       :      5.60s CPU      6.46s WALL (    4929 calls)
     fft          :      0.20s CPU      0.21s WALL (     165 calls)
     ffts         :      0.04s CPU      0.04s WALL (      37 calls)
     fftw         :     80.87s CPU     81.64s WALL (  124334 calls)

     Parallel routines
     fft_scatt_xy :      6.82s CPU      6.94s WALL (  124536 calls)
     fft_scatt_yz :      6.86s CPU      7.00s WALL (  124536 calls)

     PWSCF        :   2m10.55s CPU   2m16.48s WALL


   This run was terminated on:  15:24: 8  29Apr2026            

=------------------------------------------------------------------------------=
   JOB DONE.
=------------------------------------------------------------------------------=
Note: The following floating-point exceptions are signalling: IEEE_INVALID_FLAG IEEE_DIVIDE_BY_ZERO IEEE_UNDERFLOW_FLAG
