
     Program PWSCF v.6.7MaX starts on 29Apr2026 at 15: 7:35 

     This program is part of the open-source Quantum ESPRESSO suite
     for quantum simulation of materials; please cite
         "P. Giannozzi et al., J. Phys.:Condens. Matter 21 395502 (2009);
         "P. Giannozzi et al., J. Phys.:Condens. Matter 29 465901 (2017);
          URL http://www.quantum-espresso.org", 
     in publications or presentations arising from this work. More details at
     http://www.quantum-espresso.org/quote

     Parallel version (MPI & OpenMP), running on       4 processor cores
     Number of MPI processes:                 4
     Threads/MPI process:                     1

     MPI processes distributed on     1 nodes
     R & G space division:  proc/nbgrp/npool/nimage =       4
     Waiting for input...
     Reading input from standard input

     Current dimensions of program PWSCF are:
     Max number of different atomic species (ntypx) = 10
     Max number of k-points (npk) =  40000
     Max angular momentum in pseudopotentials (lmaxx) =  3
     Message from routine read_pp_mesh:
     mesh size missing, using the one in header

     Subspace diagonalization in iterative solution of the eigenvalue problem:
     a serial algorithm will be used


     Parallelization info
     --------------------
     sticks:   dense  smooth     PW     G-vecs:    dense   smooth      PW
     Min         315     315     90                33957    33957    5092
     Max         316     316     91                33976    33976    5100
     Sum        1261    1261    361               135857   135857   20389



     bravais-lattice index     =            4
     lattice parameter (alat)  =       7.5676  a.u.
     unit-cell volume          =    1405.8429 (a.u.)^3
     number of atoms/cell      =            2
     number of atomic types    =            1
     number of electrons       =        30.00
     number of Kohn-Sham states=           20
     kinetic-energy cutoff     =      80.0000  Ry
     charge density cutoff     =     320.0000  Ry
     scf convergence threshold =      1.0E-06
     mixing beta               =       0.7000
     number of iterations used =            8  plain     mixing
     energy convergence thresh.=      1.0E-04
     force convergence thresh. =      1.0E-03
     press convergence thresh. =      1.0E-03
     Exchange-correlation= SLA  PW   NOGX NOGC
                           (   1   4   0   0   0   0   0)
     nstep                     =           50


     celldm(1)=   7.567597  celldm(2)=   0.000000  celldm(3)=   3.745692
     celldm(4)=   0.000000  celldm(5)=   0.000000  celldm(6)=   0.000000

     crystal axes: (cart. coord. in units of alat)
               a(1) = (   1.000000   0.000000   0.000000 )  
               a(2) = (  -0.500000   0.866025   0.000000 )  
               a(3) = (   0.000000   0.000000   3.745692 )  

     reciprocal axes: (cart. coord. in units 2 pi/alat)
               b(1) = (  1.000000  0.577350 -0.000000 )  
               b(2) = (  0.000000  1.154701  0.000000 )  
               b(3) = (  0.000000 -0.000000  0.266973 )  


     PseudoPot. # 1 for Sb read from file:
     /Users/cdhogan/Research/Codes/espresso/PSEUDO/DOJO-LDA-NC-SR-04-STD/Sb.upf
     MD5 check sum: 7f611d33cada28a8ba2468ea7ddc75dd
     Pseudo is Norm-conserving + core correction, Zval = 15.0
     Generated using ONCVPSP code by D. R. Hamann
     Using radial grid of 1416 points,  6 beta functions with: 
                l(1) =   0
                l(2) =   0
                l(3) =   1
                l(4) =   1
                l(5) =   2
                l(6) =   2

     atomic species   valence    mass     pseudopotential
        Sb            15.00    12.01100     Sb( 1.00)

      6 Sym. Ops. (no inversion) found


                                    s                        frac. trans.

      isym =  1     identity                                     

 cryst.   s( 1) = (     1          0          0      )
                  (     0          1          0      )
                  (     0          0          1      )

 cart.    s( 1) = (  1.0000000  0.0000000  0.0000000 )
                  (  0.0000000  1.0000000  0.0000000 )
                  (  0.0000000  0.0000000  1.0000000 )


      isym =  2     120 deg rotation - cryst. axis [0,0,1]       

 cryst.   s( 2) = (     0          1          0      )
                  (    -1         -1          0      )
                  (     0          0          1      )

 cart.    s( 2) = ( -0.5000000 -0.8660254  0.0000000 )
                  (  0.8660254 -0.5000000  0.0000000 )
                  (  0.0000000  0.0000000  1.0000000 )


      isym =  3     120 deg rotation - cryst. axis [0,0,-1]      

 cryst.   s( 3) = (    -1         -1          0      )
                  (     1          0          0      )
                  (     0          0          1      )

 cart.    s( 3) = ( -0.5000000  0.8660254  0.0000000 )
                  ( -0.8660254 -0.5000000  0.0000000 )
                  (  0.0000000  0.0000000  1.0000000 )


      isym =  4     inv. 180 deg rotation - cart. axis [1,0,0]   

 cryst.   s( 4) = (    -1          0          0      )
                  (     1          1          0      )
                  (     0          0          1      )

 cart.    s( 4) = ( -1.0000000  0.0000000  0.0000000 )
                  (  0.0000000  1.0000000  0.0000000 )
                  (  0.0000000  0.0000000  1.0000000 )


      isym =  5     inv. 180 deg rotation - cryst. axis [0,1,0]  

 cryst.   s( 5) = (     1          1          0      )
                  (     0         -1          0      )
                  (     0          0          1      )

 cart.    s( 5) = (  0.5000000  0.8660254  0.0000000 )
                  (  0.8660254 -0.5000000  0.0000000 )
                  (  0.0000000  0.0000000  1.0000000 )


      isym =  6     inv. 180 deg rotation - cryst. axis [1,1,0]  

 cryst.   s( 6) = (     0         -1          0      )
                  (    -1          0          0      )
                  (     0          0          1      )

 cart.    s( 6) = (  0.5000000 -0.8660254  0.0000000 )
                  ( -0.8660254 -0.5000000  0.0000000 )
                  (  0.0000000  0.0000000  1.0000000 )


     point group C_3v (3m)  
     there are  3 classes
     the character table:

       E     2C3   3s_v 
A_1    1.00  1.00  1.00
A_2    1.00  1.00 -1.00
E      2.00 -1.00  0.00

     the symmetry operations in each class and the name of the first element:

     E        1
          identity                                               
     2C3      2    3
          120 deg rotation - cryst. axis [0,0,1]                 
     3s_v     4    5    6
          inv. 180 deg rotation - cart. axis [1,0,0]             

   Cartesian axes

     site n.     atom                  positions (alat units)
         1           Sb  tau(   1) = (   0.0000000   0.0000000   1.8728462  )
         2           Sb  tau(   2) = (  -0.0000000   0.5773503   2.2848724  )

   Crystallographic axes

     site n.     atom                  positions (cryst. coord.)
         1           Sb  tau(   1) = (  0.0000000  0.0000000  0.5000000  )
         2           Sb  tau(   2) = (  0.3333333  0.6666667  0.6100000  )

     number of k points=    27
                       cart. coord. in units 2pi/alat
        k(    1) = (   0.0000000   0.0000000   0.0000000), wk =   0.0088889
        k(    2) = (   0.0000000   0.0769800   0.0000000), wk =   0.0533333
        k(    3) = (   0.0000000   0.1539601   0.0000000), wk =   0.0533333
        k(    4) = (   0.0000000   0.2309401   0.0000000), wk =   0.0533333
        k(    5) = (   0.0000000   0.3079201   0.0000000), wk =   0.0533333
        k(    6) = (   0.0000000   0.3849002   0.0000000), wk =   0.0533333
        k(    7) = (   0.0000000   0.4618802   0.0000000), wk =   0.0533333
        k(    8) = (   0.0000000   0.5388603   0.0000000), wk =   0.0533333
        k(    9) = (   0.0666667   0.1154701   0.0000000), wk =   0.0533333
        k(   10) = (   0.0666667   0.1924501   0.0000000), wk =   0.1066667
        k(   11) = (   0.0666667   0.2694301   0.0000000), wk =   0.1066667
        k(   12) = (   0.0666667   0.3464102   0.0000000), wk =   0.1066667
        k(   13) = (   0.0666667   0.4233902   0.0000000), wk =   0.1066667
        k(   14) = (   0.0666667   0.5003702   0.0000000), wk =   0.1066667
        k(   15) = (   0.0666667   0.5773503   0.0000000), wk =   0.0533333
        k(   16) = (   0.1333333   0.2309401   0.0000000), wk =   0.0533333
        k(   17) = (   0.1333333   0.3079201   0.0000000), wk =   0.1066667
        k(   18) = (   0.1333333   0.3849002   0.0000000), wk =   0.1066667
        k(   19) = (   0.1333333   0.4618802   0.0000000), wk =   0.1066667
        k(   20) = (   0.1333333   0.5388603   0.0000000), wk =   0.1066667
        k(   21) = (   0.2000000   0.3464102   0.0000000), wk =   0.0533333
        k(   22) = (   0.2000000   0.4233902   0.0000000), wk =   0.1066667
        k(   23) = (   0.2000000   0.5003702   0.0000000), wk =   0.1066667
        k(   24) = (   0.2000000   0.5773503   0.0000000), wk =   0.0533333
        k(   25) = (   0.2666667   0.4618802   0.0000000), wk =   0.0533333
        k(   26) = (   0.2666667   0.5388603   0.0000000), wk =   0.1066667
        k(   27) = (   0.3333333   0.5773503   0.0000000), wk =   0.0177778

                       cryst. coord.
        k(    1) = (   0.0000000   0.0000000   0.0000000), wk =   0.0088889
        k(    2) = (   0.0000000   0.0666667   0.0000000), wk =   0.0533333
        k(    3) = (   0.0000000   0.1333333   0.0000000), wk =   0.0533333
        k(    4) = (   0.0000000   0.2000000   0.0000000), wk =   0.0533333
        k(    5) = (   0.0000000   0.2666667   0.0000000), wk =   0.0533333
        k(    6) = (   0.0000000   0.3333333   0.0000000), wk =   0.0533333
        k(    7) = (   0.0000000   0.4000000   0.0000000), wk =   0.0533333
        k(    8) = (   0.0000000   0.4666667   0.0000000), wk =   0.0533333
        k(    9) = (   0.0666667   0.0666667   0.0000000), wk =   0.0533333
        k(   10) = (   0.0666667   0.1333333   0.0000000), wk =   0.1066667
        k(   11) = (   0.0666667   0.2000000   0.0000000), wk =   0.1066667
        k(   12) = (   0.0666667   0.2666667   0.0000000), wk =   0.1066667
        k(   13) = (   0.0666667   0.3333333   0.0000000), wk =   0.1066667
        k(   14) = (   0.0666667   0.4000000   0.0000000), wk =   0.1066667
        k(   15) = (   0.0666667   0.4666667   0.0000000), wk =   0.0533333
        k(   16) = (   0.1333333   0.1333333   0.0000000), wk =   0.0533333
        k(   17) = (   0.1333333   0.2000000   0.0000000), wk =   0.1066667
        k(   18) = (   0.1333333   0.2666667   0.0000000), wk =   0.1066667
        k(   19) = (   0.1333333   0.3333333   0.0000000), wk =   0.1066667
        k(   20) = (   0.1333333   0.4000000   0.0000000), wk =   0.1066667
        k(   21) = (   0.2000000   0.2000000   0.0000000), wk =   0.0533333
        k(   22) = (   0.2000000   0.2666667   0.0000000), wk =   0.1066667
        k(   23) = (   0.2000000   0.3333333   0.0000000), wk =   0.1066667
        k(   24) = (   0.2000000   0.4000000   0.0000000), wk =   0.0533333
        k(   25) = (   0.2666667   0.2666667   0.0000000), wk =   0.0533333
        k(   26) = (   0.2666667   0.3333333   0.0000000), wk =   0.1066667
        k(   27) = (   0.3333333   0.3333333   0.0000000), wk =   0.0177778

     Dense  grid:   135857 G-vectors     FFT dimensions: (  45,  45, 162)

     Dynamical RAM for                 wfc:       1.30 MB

     Dynamical RAM for     wfc (w. buffer):      36.28 MB

     Dynamical RAM for           str. fact:       0.52 MB

     Dynamical RAM for           local pot:       0.00 MB

     Dynamical RAM for          nlocal pot:       2.33 MB

     Dynamical RAM for                qrad:       2.87 MB

     Dynamical RAM for          rho,v,vnew:       3.46 MB

     Dynamical RAM for               rhoin:       1.15 MB

     Dynamical RAM for            rho*nmix:       8.29 MB

     Dynamical RAM for           G-vectors:       2.20 MB

     Dynamical RAM for          h,s,v(r/c):       0.07 MB

     Dynamical RAM for          <psi|beta>:       0.01 MB

     Dynamical RAM for                 psi:       2.59 MB

     Dynamical RAM for                hpsi:       2.59 MB

     Dynamical RAM for      wfcinit/wfcrot:       2.60 MB

     Estimated static dynamical RAM per process >      61.31 MB

     Estimated max dynamical RAM per process >      66.58 MB

     Estimated total dynamical RAM >     266.31 MB

     Initial potential from superposition of free atoms

     starting charge   29.99907, renormalised to   30.00000

     negative rho (up, down):  6.424E-06 0.000E+00
     Starting wfcs are   18 randomized atomic wfcs +    2 random wfcs

     total cpu time spent up to now is        1.4 secs

     Self-consistent Calculation

     iteration #  1     ecut=    80.00 Ry     beta= 0.70
     Davidson diagonalization with overlap
     ethr =  1.00E-02,  avg # of iterations =  5.8

     Threshold (ethr) on eigenvalues was too large:
     Diagonalizing with lowered threshold

     Davidson diagonalization with overlap
     ethr =  6.07E-05,  avg # of iterations =  6.9

     negative rho (up, down):  1.597E-07 0.000E+00

     total cpu time spent up to now is        7.8 secs

     total energy              =    -362.91835175 Ry
     estimated scf accuracy    <       0.01886216 Ry

     iteration #  2     ecut=    80.00 Ry     beta= 0.70
     Davidson diagonalization with overlap
     ethr =  6.29E-05,  avg # of iterations =  3.4

     total cpu time spent up to now is       10.4 secs

     total energy              =    -362.92000446 Ry
     estimated scf accuracy    <       0.00074463 Ry

     iteration #  3     ecut=    80.00 Ry     beta= 0.70
     Davidson diagonalization with overlap
     ethr =  2.48E-06,  avg # of iterations =  5.6

     total cpu time spent up to now is       14.5 secs

     total energy              =    -362.92013882 Ry
     estimated scf accuracy    <       0.00014198 Ry

     iteration #  4     ecut=    80.00 Ry     beta= 0.70
     Davidson diagonalization with overlap
     ethr =  4.73E-07,  avg # of iterations =  3.5

     total cpu time spent up to now is       17.8 secs

     total energy              =    -362.92017997 Ry
     estimated scf accuracy    <       0.00001510 Ry

     iteration #  5     ecut=    80.00 Ry     beta= 0.70
     Davidson diagonalization with overlap
     ethr =  5.03E-08,  avg # of iterations =  2.3

     total cpu time spent up to now is       20.7 secs

     total energy              =    -362.92018243 Ry
     estimated scf accuracy    <       0.00000146 Ry

     iteration #  6     ecut=    80.00 Ry     beta= 0.70
     Davidson diagonalization with overlap
     ethr =  4.86E-09,  avg # of iterations =  3.4

     total cpu time spent up to now is       23.4 secs

     total energy              =    -362.92018214 Ry
     estimated scf accuracy    <       0.00000985 Ry

     iteration #  7     ecut=    80.00 Ry     beta= 0.70
     Davidson diagonalization with overlap
     ethr =  4.86E-09,  avg # of iterations =  2.0

     total cpu time spent up to now is       26.0 secs

     End of self-consistent calculation

          k = 0.0000 0.0000 0.0000 ( 17049 PWs)   bands (ev):

   -29.3332 -29.3332 -29.2446 -29.2446 -29.2072 -29.1213 -29.1213 -29.0853
   -29.0302 -29.0302 -12.5037  -7.3336  -1.6256  -0.6177  -0.6177   1.0268
     2.1778   2.1778   3.7012   3.8181

     occupation numbers 
     1.0000   1.0000   1.0000   1.0000   1.0000   1.0000   1.0000   1.0000
     1.0000   1.0000   1.0000   1.0000   1.0000   1.0000   1.0000   0.0000
     0.0000   0.0000   0.0000   0.0000

          k = 0.0000 0.0770 0.0000 ( 17019 PWs)   bands (ev):

   -29.3328 -29.3306 -29.2443 -29.2429 -29.2063 -29.1224 -29.1214 -29.0860
   -29.0334 -29.0303 -12.4524  -7.3225  -1.5967  -1.1895  -0.7442   1.4372
     2.0685   2.2943   3.7799   3.8761

     occupation numbers 
     1.0000   1.0000   1.0000   1.0000   1.0000   1.0000   1.0000   1.0000
     1.0000   1.0000   1.0000   1.0000   1.0000   1.0000   1.0000   0.0000
     0.0000   0.0000   0.0000   0.0000

          k = 0.0000 0.1540 0.0000 ( 17019 PWs)   bands (ev):

   -29.3316 -29.3227 -29.2437 -29.2380 -29.2033 -29.1257 -29.1221 -29.0878
   -29.0427 -29.0307 -12.2993  -7.3029  -2.1492  -1.5217  -1.0483   1.2974
     2.4680   2.5468   3.9639   4.0646

     occupation numbers 
     1.0000   1.0000   1.0000   1.0000   1.0000   1.0000   1.0000   1.0000
     1.0000   1.0000   1.0000   1.0000   1.0000   1.0000   1.0000   0.0000
     0.0000   0.0000   0.0000   0.0000

          k = 0.0000 0.2309 0.0000 ( 16969 PWs)   bands (ev):

   -29.3298 -29.3101 -29.2431 -29.2302 -29.1981 -29.1311 -29.1236 -29.0906
   -29.0575 -29.0313 -12.0478  -7.3207  -3.0444  -1.4453  -1.4081   0.8075
     2.7709   2.8357   4.0973   4.3603

     occupation numbers 
     1.0000   1.0000   1.0000   1.0000   1.0000   1.0000   1.0000   1.0000
     1.0000   1.0000   1.0000   1.0000   1.0000   1.0000   1.0000   0.0000
     0.0000   0.0000   0.0000   0.0000

          k = 0.0000 0.3079 0.0000 ( 16963 PWs)   bands (ev):

   -29.3277 -29.2939 -29.2422 -29.2202 -29.1907 -29.1384 -29.1268 -29.0946
   -29.0756 -29.0321 -11.7049  -7.4590  -3.7071  -1.7460  -1.4722   0.4519
     2.6870   2.8828   4.3215   4.6437

     occupation numbers 
     1.0000   1.0000   1.0000   1.0000   1.0000   1.0000   1.0000   1.0000
     1.0000   1.0000   1.0000   1.0000   1.0000   1.0000   1.0000   0.0000
     0.0000   0.0000   0.0000   0.0000

          k = 0.0000 0.3849 0.0000 ( 16970 PWs)   bands (ev):

   -29.3257 -29.2762 -29.2398 -29.2084 -29.1818 -29.1475 -29.1324 -29.1040
   -29.0903 -29.0329 -11.2862  -7.7904  -4.0346  -2.0217  -1.7118   0.3907
     2.2729   2.8978   4.6722   4.8088

     occupation numbers 
     1.0000   1.0000   1.0000   1.0000   1.0000   1.0000   1.0000   1.0000
     1.0000   1.0000   1.0000   1.0000   1.0000   1.0000   1.0000   0.0000
     0.0000   0.0000   0.0000   0.0000

          k = 0.0000 0.4619 0.0000 ( 16994 PWs)   bands (ev):

   -29.3241 -29.2627 -29.2321 -29.1958 -29.1736 -29.1581 -29.1407 -29.1213
   -29.0946 -29.0335 -10.8307  -8.2658  -4.0617  -2.2142  -2.0867   0.5717
     1.8605   2.8708   4.4504   5.3421

     occupation numbers 
     1.0000   1.0000   1.0000   1.0000   1.0000   1.0000   1.0000   1.0000
     1.0000   1.0000   1.0000   1.0000   1.0000   1.0000   1.0000   0.0000
     0.0000   0.0000   0.0000   0.0000

          k = 0.0000 0.5389 0.0000 ( 16970 PWs)   bands (ev):

   -29.3233 -29.2576 -29.2202 -29.1830 -29.1716 -29.1698 -29.1453 -29.1347
   -29.0959 -29.0339 -10.4604  -8.6768  -3.9656  -2.3836  -2.3129   0.8103
     1.5513   2.8465   4.2311   5.9796

     occupation numbers 
     1.0000   1.0000   1.0000   1.0000   1.0000   1.0000   1.0000   1.0000
     1.0000   1.0000   1.0000   1.0000   1.0000   1.0000   1.0000   0.0000
     0.0000   0.0000   0.0000   0.0000

          k = 0.0667 0.1155 0.0000 ( 17041 PWs)   bands (ev):

   -29.3320 -29.3253 -29.2437 -29.2398 -29.2043 -29.1247 -29.1217 -29.0872
   -29.0397 -29.0306 -12.3502  -7.3070  -1.8607  -1.5447  -1.0217   1.7986
     1.8040   2.6314   3.9351   3.9802

     occupation numbers 
     1.0000   1.0000   1.0000   1.0000   1.0000   1.0000   1.0000   1.0000
     1.0000   1.0000   1.0000   1.0000   1.0000   1.0000   1.0000   0.0000
     0.0000   0.0000   0.0000   0.0000

          k = 0.0667 0.1925 0.0000 ( 16968 PWs)   bands (ev):

   -29.3305 -29.3150 -29.2427 -29.2340 -29.2001 -29.1293 -29.1225 -29.0895
   -29.0517 -29.0312 -12.1477  -7.3046  -2.6871  -1.5001  -1.4188   1.3290
     2.2455   2.9719   4.1086   4.2231

     occupation numbers 
     1.0000   1.0000   1.0000   1.0000   1.0000   1.0000   1.0000   1.0000
     1.0000   1.0000   1.0000   1.0000   1.0000   1.0000   1.0000   0.0000
     0.0000   0.0000   0.0000   0.0000

          k = 0.0667 0.2694 0.0000 ( 16952 PWs)   bands (ev):

   -29.3286 -29.3005 -29.2417 -29.2258 -29.1934 -29.1361 -29.1243 -29.0929
   -29.0683 -29.0320 -11.8499  -7.3796  -3.4149  -1.8863  -1.4069   0.8860
     2.5420   2.9729   4.2433   4.5319

     occupation numbers 
     1.0000   1.0000   1.0000   1.0000   1.0000   1.0000   1.0000   1.0000
     1.0000   1.0000   1.0000   1.0000   1.0000   1.0000   1.0000   0.0000
     0.0000   0.0000   0.0000   0.0000

          k = 0.0667 0.3464 0.0000 ( 16977 PWs)   bands (ev):

   -29.3266 -29.2831 -29.2402 -29.2155 -29.1847 -29.1447 -29.1280 -29.0986
   -29.0860 -29.0328 -11.4671  -7.6167  -3.8841  -2.2315  -1.5078   0.6458
     2.6122   2.6568   4.5578   4.8133

     occupation numbers 
     1.0000   1.0000   1.0000   1.0000   1.0000   1.0000   1.0000   1.0000
     1.0000   1.0000   1.0000   1.0000   1.0000   1.0000   1.0000   0.0000
     0.0000   0.0000   0.0000   0.0000

          k = 0.0667 0.4234 0.0000 ( 16999 PWs)   bands (ev):

   -29.3248 -29.2665 -29.2359 -29.2038 -29.1754 -29.1551 -29.1344 -29.1137
   -29.0944 -29.0336 -11.0226  -8.0357  -4.0446  -2.4713  -1.8070   0.6924
     2.1605   2.6777   4.6828   5.1092

     occupation numbers 
     1.0000   1.0000   1.0000   1.0000   1.0000   1.0000   1.0000   1.0000
     1.0000   1.0000   1.0000   1.0000   1.0000   1.0000   1.0000   0.0000
     0.0000   0.0000   0.0000   0.0000

          k = 0.0667 0.5004 0.0000 ( 16994 PWs)   bands (ev):

   -29.3235 -29.2571 -29.2249 -29.1915 -29.1709 -29.1646 -29.1424 -29.1298
   -29.0967 -29.0342 -10.5831  -8.5128  -4.0028  -2.5748  -2.1826   0.9388
     1.7387   2.6840   4.4013   5.7211

     occupation numbers 
     1.0000   1.0000   1.0000   1.0000   1.0000   1.0000   1.0000   1.0000
     1.0000   1.0000   1.0000   1.0000   1.0000   1.0000   1.0000   0.0000
     0.0000   0.0000   0.0000   0.0000

          k = 0.0667 0.5774 0.0000 ( 17000 PWs)   bands (ev):

   -29.3231 -29.2550 -29.2165 -29.1803 -29.1801 -29.1671 -29.1427 -29.1385
   -29.0973 -29.0344 -10.3587  -8.7598  -3.9513  -2.5359  -2.4203   1.1813
     1.4530   2.6893   4.2687   6.4282

     occupation numbers 
     1.0000   1.0000   1.0000   1.0000   1.0000   1.0000   1.0000   1.0000
     1.0000   1.0000   1.0000   1.0000   1.0000   1.0000   1.0000   0.0000
     0.0000   0.0000   0.0000   0.0000

          k = 0.1333 0.2309 0.0000 ( 16943 PWs)   bands (ev):

   -29.3289 -29.3027 -29.2407 -29.2287 -29.1941 -29.1356 -29.1231 -29.0925
   -29.0656 -29.0320 -11.8987  -7.3564  -3.2271  -2.0821  -1.3969   1.4113
     2.1033   3.1304   4.3631   4.3796

     occupation numbers 
     1.0000   1.0000   1.0000   1.0000   1.0000   1.0000   1.0000   1.0000
     1.0000   1.0000   1.0000   1.0000   1.0000   1.0000   1.0000   0.0000
     0.0000   0.0000   0.0000   0.0000

          k = 0.1333 0.3079 0.0000 ( 16979 PWs)   bands (ev):

   -29.3271 -29.2866 -29.2385 -29.2217 -29.1855 -29.1442 -29.1245 -29.0969
   -29.0828 -29.0331 -11.5590  -7.5281  -3.6549  -2.6131  -1.4177   1.2032
     2.1512   3.0538   4.5475   4.7411

     occupation numbers 
     1.0000   1.0000   1.0000   1.0000   1.0000   1.0000   1.0000   1.0000
     1.0000   1.0000   1.0000   1.0000   1.0000   1.0000   1.0000   0.0000
     0.0000   0.0000   0.0000   0.0000

          k = 0.1333 0.3849 0.0000 ( 17000 PWs)   bands (ev):

   -29.3253 -29.2687 -29.2358 -29.2124 -29.1755 -29.1548 -29.1278 -29.1084
   -29.0952 -29.0342 -11.1432  -7.8691  -3.8958  -2.9529  -1.6069   1.0732
     2.1009   2.8279   4.8634   5.0679

     occupation numbers 
     1.0000   1.0000   1.0000   1.0000   1.0000   1.0000   1.0000   1.0000
     1.0000   1.0000   1.0000   1.0000   1.0000   1.0000   1.0000   0.0000
     0.0000   0.0000   0.0000   0.0000

          k = 0.1333 0.4619 0.0000 ( 16990 PWs)   bands (ev):

   -29.3239 -29.2545 -29.2286 -29.2014 -29.1692 -29.1638 -29.1348 -29.1255
   -29.0991 -29.0350 -10.6872  -8.3331  -3.9830  -3.0547  -1.9600   1.1261
     1.9914   2.6067   4.7676   5.5479

     occupation numbers 
     1.0000   1.0000   1.0000   1.0000   1.0000   1.0000   1.0000   1.0000
     1.0000   1.0000   1.0000   1.0000   1.0000   1.0000   1.0000   0.0000
     0.0000   0.0000   0.0000   0.0000

          k = 0.1333 0.5389 0.0000 ( 16990 PWs)   bands (ev):

   -29.3231 -29.2491 -29.2158 -29.1907 -29.1807 -29.1613 -29.1421 -29.1356
   -29.1006 -29.0355 -10.3071  -8.7406  -4.0114  -2.9417  -2.3271   1.2425
     1.8979   2.4787   4.5422   6.2128

     occupation numbers 
     1.0000   1.0000   1.0000   1.0000   1.0000   1.0000   1.0000   1.0000
     1.0000   1.0000   1.0000   1.0000   1.0000   1.0000   1.0000   0.0000
     0.0000   0.0000   0.0000   0.0000

          k = 0.2000 0.3464 0.0000 ( 16979 PWs)   bands (ev):

   -29.3255 -29.2695 -29.2346 -29.2165 -29.1755 -29.1548 -29.1251 -29.1065
   -29.0958 -29.0344 -11.1843  -7.8080  -3.7205  -3.2657  -1.5368   1.4433
     1.6864   3.2040   4.9308   5.0267

     occupation numbers 
     1.0000   1.0000   1.0000   1.0000   1.0000   1.0000   1.0000   1.0000
     1.0000   1.0000   1.0000   1.0000   1.0000   1.0000   1.0000   0.0000
     0.0000   0.0000   0.0000   0.0000

          k = 0.2000 0.4234 0.0000 ( 17002 PWs)   bands (ev):

   -29.3241 -29.2518 -29.2301 -29.2085 -29.1677 -29.1646 -29.1277 -29.1240
   -29.1017 -29.0358 -10.7455  -8.2148  -3.8476  -3.4971  -1.8028   1.2427
     1.7463   3.1440   5.2169   5.4878

     occupation numbers 
     1.0000   1.0000   1.0000   1.0000   1.0000   1.0000   1.0000   1.0000
     1.0000   1.0000   1.0000   1.0000   1.0000   1.0000   1.0000   0.0000
     0.0000   0.0000   0.0000   0.0000

          k = 0.2000 0.5004 0.0000 ( 16991 PWs)   bands (ev):

   -29.3231 -29.2410 -29.2198 -29.1983 -29.1812 -29.1570 -29.1431 -29.1293
   -29.1050 -29.0367 -10.2966  -8.6692  -4.1200  -3.2494  -2.1696   0.9983
     2.0833   2.8703   5.1165   6.0757

     occupation numbers 
     1.0000   1.0000   1.0000   1.0000   1.0000   1.0000   1.0000   1.0000
     1.0000   1.0000   1.0000   1.0000   1.0000   1.0000   1.0000   0.0000
     0.0000   0.0000   0.0000   0.0000

          k = 0.2000 0.5774 0.0000 ( 16982 PWs)   bands (ev):

   -29.3228 -29.2388 -29.2085 -29.1946 -29.1888 -29.1591 -29.1465 -29.1317
   -29.1061 -29.0371 -10.0472  -8.9255  -4.2160  -3.0440  -2.4135   0.9171
     2.4293   2.5403   5.0262   6.3730

     occupation numbers 
     1.0000   1.0000   1.0000   1.0000   1.0000   1.0000   1.0000   1.0000
     1.0000   1.0000   1.0000   1.0000   1.0000   1.0000   1.0000   0.0000
     0.0000   0.0000   0.0000   0.0000

          k = 0.2667 0.4619 0.0000 ( 17011 PWs)   bands (ev):

   -29.3231 -29.2347 -29.2251 -29.2006 -29.1814 -29.1554 -29.1434 -29.1261
   -29.1075 -29.0372 -10.2976  -8.6313  -4.1784  -3.3530  -2.0914   0.8795
     2.0485   3.1862   5.8385   5.9465

     occupation numbers 
     1.0000   1.0000   1.0000   1.0000   1.0000   1.0000   1.0000   1.0000
     1.0000   1.0000   1.0000   1.0000   1.0000   1.0000   1.0000   0.0000
     0.0000   0.0000   0.0000   0.0000

          k = 0.2667 0.5389 0.0000 ( 16999 PWs)   bands (ev):

   -29.3226 -29.2267 -29.2139 -29.1968 -29.1890 -29.1604 -29.1489 -29.1254
   -29.1118 -29.0380  -9.8739  -9.0412  -4.4154  -3.0281  -2.4201   0.6355
     2.4475   2.9473   5.8745   6.0372

     occupation numbers 
     1.0000   1.0000   1.0000   1.0000   1.0000   1.0000   1.0000   1.0000
     1.0000   1.0000   1.0000   1.0000   1.0000   1.0000   1.0000   0.0000
     0.0000   0.0000   0.0000   0.0000

          k = 0.3333 0.5774 0.0000 ( 17013 PWs)   bands (ev):

   -29.3224 -29.2139 -29.2109 -29.2108 -29.1757 -29.1756 -29.1473 -29.1191
   -29.1190 -29.0386  -9.4472  -9.4471  -4.5390  -2.7147  -2.7147   0.4861
     2.7732   2.7732   5.8152   6.8123

     occupation numbers 
     1.0000   1.0000   1.0000   1.0000   1.0000   1.0000   1.0000   1.0000
     1.0000   1.0000   1.0000   1.0000   1.0000   1.0000   1.0000   0.0000
     0.0000   0.0000   0.0000   0.0000

     highest occupied, lowest unoccupied level (ev):    -0.6177    0.3907

!    total energy              =    -362.92018329 Ry
     estimated scf accuracy    <          6.9E-09 Ry

     The total energy is the sum of the following terms:
     one-electron contribution =    -798.95162776 Ry
     hartree contribution      =     403.69663471 Ry
     xc contribution           =     -89.49923575 Ry
     ewald contribution        =     121.83404552 Ry

     convergence has been achieved in   7 iterations

     Forces acting on atoms (cartesian axes, Ry/au):

     atom    1 type  1   force =     0.00000000    0.00000000    0.00790016
     atom    2 type  1   force =     0.00000000   -0.00000000   -0.00790016
     The non-local contrib.  to forces
     atom    1 type  1   force =     0.00000000   -0.00000000    0.59366865
     atom    2 type  1   force =     0.00000000   -0.00000000   -0.59479306
     The ionic contribution  to forces
     atom    1 type  1   force =    -0.00000001    0.00000001  -37.27797582
     atom    2 type  1   force =     0.00000001   -0.00000001   37.27797582
     The local contribution  to forces
     atom    1 type  1   force =    -0.00000000   -0.00000000   36.70071099
     atom    2 type  1   force =     0.00000043   -0.00000025  -36.70083684
     The core correction contribution to forces
     atom    1 type  1   force =     0.00000000    0.00000000   -0.00881193
     atom    2 type  1   force =     0.00000002   -0.00000001    0.00879854
     The Hubbard contrib.    to forces
     atom    1 type  1   force =     0.00000000    0.00000000    0.00000000
     atom    2 type  1   force =     0.00000000    0.00000000    0.00000000
     The SCF correction term to forces
     atom    1 type  1   force =     0.00000000   -0.00000000   -0.00000000
     atom    2 type  1   force =    -0.00000000    0.00000000    0.00025753

     Total force =     0.007900     Total SCF correction =     0.000258


     Computing stress (Cartesian axis) and pressure

          total   stress  (Ry/bohr**3)                   (kbar)     P=       -1.83
  -0.00000889   0.00000000   0.00000000           -1.31        0.00        0.00
   0.00000000  -0.00000889   0.00000000            0.00       -1.31        0.00
   0.00000000   0.00000000  -0.00001954            0.00        0.00       -2.87

     kinetic stress (kbar)  14786.47      0.00      0.00
                                0.00  14786.47      0.00
                                0.00      0.00  14813.36

     local   stress (kbar) -69717.43      0.00     -0.00
                                0.00 -69717.43      0.00
                               -0.00      0.00  65022.34

     nonloc. stress (kbar)  -6411.88     -0.00      0.00
                                0.00  -6411.88      0.00
                                0.00     -0.00  -6396.24

     hartree stress (kbar)  35805.82      0.00     -0.00
                                0.00  35805.82     -0.00
                               -0.00     -0.00 -29369.49

     exc-cor stress (kbar)   3578.01      0.00      0.00
                                0.00   3578.01      0.00
                                0.00      0.00   3578.01

     corecor stress (kbar)  -5494.48     -0.00      0.00
                               -0.00  -5494.48     -0.00
                                0.00     -0.00  -5495.01

     ewald   stress (kbar)  27452.19     -0.00      0.00
                               -0.00  27452.19     -0.00
                                0.00     -0.00 -42155.86

     hubbard stress (kbar)      0.00      0.00      0.00
                                0.00      0.00      0.00
                                0.00      0.00      0.00

     DFT-D   stress (kbar)      0.00      0.00      0.00
                                0.00      0.00      0.00
                                0.00      0.00      0.00

     XDM     stress (kbar)      0.00      0.00      0.00
                                0.00      0.00      0.00
                                0.00      0.00      0.00

     dft-nl  stress (kbar)      0.00      0.00      0.00
                                0.00      0.00      0.00
                                0.00      0.00      0.00

     TS-vdW  stress (kbar)      0.00      0.00      0.00
                                0.00      0.00      0.00
                                0.00      0.00      0.00



     BFGS Geometry Optimization
     Energy error            =      0.0E+00
     Gradient error          =      7.9E-03
     Cell gradient error     =      8.9E-06


     number of scf cycles    =   1
     number of bfgs steps    =   0

     enthalpy new            =    -362.9201832940 Ry

     new trust radius        =       0.0079001635 bohr
     new conv_thr            =       0.0000010000 Ry

     new unit-cell volume =   1405.21801 a.u.^3 (   208.23182 Ang^3 )
     density =      0.19156 g/cm^3

CELL_PARAMETERS (alat=  7.56759724)
   0.999777743   0.000000000   0.000000000
  -0.499888871   0.865832923   0.000000000
   0.000000000   0.000000000   3.745692454

ATOMIC_POSITIONS (crystal)
Sb            0.0000000000        0.0000000000        0.5000000000    0   0   0
Sb            0.3333333330        0.6666666670        0.6097212942



     Writing output data file ./tmp/Sb.save/
     NEW-OLD atomic charge density approx. for the potential
     extrapolated charge   29.98666, renormalised to   30.00000

     total cpu time spent up to now is       28.7 secs

     Self-consistent Calculation

     iteration #  1     ecut=    80.00 Ry     beta= 0.70
     Davidson diagonalization with overlap
     ethr =  1.00E-06,  avg # of iterations =  5.7

     total cpu time spent up to now is       33.8 secs

     total energy              =    -362.92013967 Ry
     estimated scf accuracy    <       0.00006137 Ry

     iteration #  2     ecut=    80.00 Ry     beta= 0.70
     Davidson diagonalization with overlap
     ethr =  2.05E-07,  avg # of iterations =  5.4

     total cpu time spent up to now is       37.7 secs

     total energy              =    -362.92024052 Ry
     estimated scf accuracy    <       0.00016374 Ry

     iteration #  3     ecut=    80.00 Ry     beta= 0.70
     Davidson diagonalization with overlap
     ethr =  2.05E-07,  avg # of iterations =  2.0

     total cpu time spent up to now is       40.3 secs

     total energy              =    -362.92024727 Ry
     estimated scf accuracy    <       0.00002782 Ry

     iteration #  4     ecut=    80.00 Ry     beta= 0.70
     Davidson diagonalization with overlap
     ethr =  9.27E-08,  avg # of iterations =  1.1

     total cpu time spent up to now is       42.6 secs

     total energy              =    -362.92024550 Ry
     estimated scf accuracy    <       0.00001662 Ry

     iteration #  5     ecut=    80.00 Ry     beta= 0.70
     Davidson diagonalization with overlap
     ethr =  5.54E-08,  avg # of iterations =  1.1

     total cpu time spent up to now is       44.9 secs

     total energy              =    -362.92024274 Ry
     estimated scf accuracy    <       0.00000752 Ry

     iteration #  6     ecut=    80.00 Ry     beta= 0.70
     Davidson diagonalization with overlap
     ethr =  2.51E-08,  avg # of iterations =  2.0

     total cpu time spent up to now is       47.6 secs

     End of self-consistent calculation

          k = 0.0000 0.0000 0.0000 ( 17049 PWs)   bands (ev):

   -29.3318 -29.3318 -29.2423 -29.2423 -29.2045 -29.1176 -29.1176 -29.0815
   -29.0259 -29.0259 -12.5157  -7.3235  -1.6169  -0.6245  -0.6245   1.0263
     2.1808   2.1808   3.7026   3.8224

     occupation numbers 
     1.0000   1.0000   1.0000   1.0000   1.0000   1.0000   1.0000   1.0000
     1.0000   1.0000   1.0000   1.0000   1.0000   1.0000   1.0000   0.0000
     0.0000   0.0000   0.0000   0.0000

          k =-0.0000 0.0770 0.0000 ( 17019 PWs)   bands (ev):

   -29.3314 -29.3291 -29.2420 -29.2406 -29.2035 -29.1188 -29.1178 -29.0822
   -29.0291 -29.0260 -12.4643  -7.3125  -1.5880  -1.1968  -0.7512   1.4377
     2.0720   2.2981   3.7810   3.8803

     occupation numbers 
     1.0000   1.0000   1.0000   1.0000   1.0000   1.0000   1.0000   1.0000
     1.0000   1.0000   1.0000   1.0000   1.0000   1.0000   1.0000   0.0000
     0.0000   0.0000   0.0000   0.0000

          k =-0.0000 0.1540 0.0000 ( 17019 PWs)   bands (ev):

   -29.3302 -29.3212 -29.2414 -29.2357 -29.2006 -29.1221 -29.1185 -29.0840
   -29.0386 -29.0265 -12.3110  -7.2931  -2.1574  -1.5131  -1.0557   1.2996
     2.4738   2.5527   3.9656   4.0675

     occupation numbers 
     1.0000   1.0000   1.0000   1.0000   1.0000   1.0000   1.0000   1.0000
     1.0000   1.0000   1.0000   1.0000   1.0000   1.0000   1.0000   0.0000
     0.0000   0.0000   0.0000   0.0000

          k =-0.0000 0.2310 0.0000 ( 16969 PWs)   bands (ev):

   -29.3284 -29.3085 -29.2408 -29.2278 -29.1953 -29.1276 -29.1200 -29.0869
   -29.0535 -29.0271 -12.0591  -7.3117  -3.0529  -1.4370  -1.4160   0.8105
     2.7794   2.8434   4.0993   4.3643

     occupation numbers 
     1.0000   1.0000   1.0000   1.0000   1.0000   1.0000   1.0000   1.0000
     1.0000   1.0000   1.0000   1.0000   1.0000   1.0000   1.0000   0.0000
     0.0000   0.0000   0.0000   0.0000

          k =-0.0000 0.3080 0.0000 ( 16963 PWs)   bands (ev):

   -29.3263 -29.2921 -29.2399 -29.2176 -29.1878 -29.1350 -29.1232 -29.0910
   -29.0717 -29.0279 -11.7156  -7.4523  -3.7143  -1.7543  -1.4647   0.4560
     2.6934   2.8935   4.3255   4.6488

     occupation numbers 
     1.0000   1.0000   1.0000   1.0000   1.0000   1.0000   1.0000   1.0000
     1.0000   1.0000   1.0000   1.0000   1.0000   1.0000   1.0000   0.0000
     0.0000   0.0000   0.0000   0.0000

          k =-0.0000 0.3850 0.0000 ( 16970 PWs)   bands (ev):

   -29.3243 -29.2743 -29.2375 -29.2058 -29.1789 -29.1442 -29.1288 -29.1008
   -29.0863 -29.0287 -11.2962  -7.7874  -4.0388  -2.0304  -1.7053   0.3953
     2.2787   2.9098   4.6798   4.8133

     occupation numbers 
     1.0000   1.0000   1.0000   1.0000   1.0000   1.0000   1.0000   1.0000
     1.0000   1.0000   1.0000   1.0000   1.0000   1.0000   1.0000   0.0000
     0.0000   0.0000   0.0000   0.0000

          k =-0.0000 0.4620 0.0000 ( 16994 PWs)   bands (ev):

   -29.3227 -29.2606 -29.2298 -29.1930 -29.1706 -29.1549 -29.1372 -29.1183
   -29.0907 -29.0293 -10.8397  -8.2667  -4.0627  -2.2232  -2.0813   0.5754
     1.8679   2.8835   4.4574   5.3480

     occupation numbers 
     1.0000   1.0000   1.0000   1.0000   1.0000   1.0000   1.0000   1.0000
     1.0000   1.0000   1.0000   1.0000   1.0000   1.0000   1.0000   0.0000
     0.0000   0.0000   0.0000   0.0000

          k =-0.0000 0.5390 0.0000 ( 16970 PWs)   bands (ev):

   -29.3218 -29.2554 -29.2177 -29.1800 -29.1685 -29.1667 -29.1420 -29.1318
   -29.0920 -29.0297 -10.4686  -8.6800  -3.9646  -2.3788  -2.3219   0.8106
     1.5628   2.8593   4.2374   5.9858

     occupation numbers 
     1.0000   1.0000   1.0000   1.0000   1.0000   1.0000   1.0000   1.0000
     1.0000   1.0000   1.0000   1.0000   1.0000   1.0000   1.0000   0.0000
     0.0000   0.0000   0.0000   0.0000

          k = 0.0667 0.1155 0.0000 ( 17041 PWs)   bands (ev):

   -29.3306 -29.3238 -29.2414 -29.2375 -29.2016 -29.1211 -29.1181 -29.0834
   -29.0355 -29.0264 -12.3619  -7.2971  -1.8686  -1.5360  -1.0289   1.8002
     1.8082   2.6377   3.9357   3.9843

     occupation numbers 
     1.0000   1.0000   1.0000   1.0000   1.0000   1.0000   1.0000   1.0000
     1.0000   1.0000   1.0000   1.0000   1.0000   1.0000   1.0000   0.0000
     0.0000   0.0000   0.0000   0.0000

          k = 0.0667 0.1925 0.0000 ( 16968 PWs)   bands (ev):

   -29.3291 -29.3135 -29.2404 -29.2316 -29.1973 -29.1258 -29.1189 -29.0858
   -29.0476 -29.0269 -12.1592  -7.2952  -2.6956  -1.4993  -1.4188   1.3329
     2.2504   2.9811   4.1105   4.2259

     occupation numbers 
     1.0000   1.0000   1.0000   1.0000   1.0000   1.0000   1.0000   1.0000
     1.0000   1.0000   1.0000   1.0000   1.0000   1.0000   1.0000   0.0000
     0.0000   0.0000   0.0000   0.0000

          k = 0.0667 0.2695 0.0000 ( 16952 PWs)   bands (ev):

   -29.3272 -29.2988 -29.2394 -29.2233 -29.1906 -29.1326 -29.1207 -29.0892
   -29.0643 -29.0278 -11.8609  -7.3717  -3.4229  -1.8937  -1.3996   0.8905
     2.5498   2.9818   4.2458   4.5361

     occupation numbers 
     1.0000   1.0000   1.0000   1.0000   1.0000   1.0000   1.0000   1.0000
     1.0000   1.0000   1.0000   1.0000   1.0000   1.0000   1.0000   0.0000
     0.0000   0.0000   0.0000   0.0000

          k = 0.0667 0.3465 0.0000 ( 16977 PWs)   bands (ev):

   -29.3251 -29.2812 -29.2379 -29.2129 -29.1818 -29.1414 -29.1244 -29.0952
   -29.0821 -29.0286 -11.4774  -7.6119  -3.8898  -2.2390  -1.5016   0.6512
     2.6181   2.6674   4.5627   4.8186

     occupation numbers 
     1.0000   1.0000   1.0000   1.0000   1.0000   1.0000   1.0000   1.0000
     1.0000   1.0000   1.0000   1.0000   1.0000   1.0000   1.0000   0.0000
     0.0000   0.0000   0.0000   0.0000

          k = 0.0667 0.4235 0.0000 ( 16999 PWs)   bands (ev):

   -29.3233 -29.2644 -29.2335 -29.2011 -29.1724 -29.1518 -29.1308 -29.1106
   -29.0904 -29.0295 -11.0321  -8.0348  -4.0472  -2.4786  -1.8025   0.6983
     2.1666   2.6890   4.6902   5.1144

     occupation numbers 
     1.0000   1.0000   1.0000   1.0000   1.0000   1.0000   1.0000   1.0000
     1.0000   1.0000   1.0000   1.0000   1.0000   1.0000   1.0000   0.0000
     0.0000   0.0000   0.0000   0.0000

          k = 0.0667 0.5005 0.0000 ( 16994 PWs)   bands (ev):

   -29.3221 -29.2549 -29.2224 -29.1887 -29.1678 -29.1615 -29.1390 -29.1268
   -29.0928 -29.0300 -10.5916  -8.5151  -4.0030  -2.5814  -2.1796   0.9435
     1.7462   2.6964   4.4076   5.7272

     occupation numbers 
     1.0000   1.0000   1.0000   1.0000   1.0000   1.0000   1.0000   1.0000
     1.0000   1.0000   1.0000   1.0000   1.0000   1.0000   1.0000   0.0000
     0.0000   0.0000   0.0000   0.0000

          k = 0.0667 0.5775 0.0000 ( 17000 PWs)   bands (ev):

   -29.3217 -29.2527 -29.2140 -29.1773 -29.1771 -29.1639 -29.1394 -29.1356
   -29.0934 -29.0302 -10.3666  -8.7634  -3.9507  -2.5444  -2.4157   1.1813
     1.4655   2.7021   4.2742   6.4349

     occupation numbers 
     1.0000   1.0000   1.0000   1.0000   1.0000   1.0000   1.0000   1.0000
     1.0000   1.0000   1.0000   1.0000   1.0000   1.0000   1.0000   0.0000
     0.0000   0.0000   0.0000   0.0000

          k = 0.1334 0.2310 0.0000 ( 16943 PWs)   bands (ev):

   -29.3275 -29.3010 -29.2384 -29.2263 -29.1913 -29.1321 -29.1195 -29.0888
   -29.0617 -29.0278 -11.9097  -7.3481  -3.2354  -2.0895  -1.3892   1.4181
     2.1085   3.1407   4.3644   4.3823

     occupation numbers 
     1.0000   1.0000   1.0000   1.0000   1.0000   1.0000   1.0000   1.0000
     1.0000   1.0000   1.0000   1.0000   1.0000   1.0000   1.0000   0.0000
     0.0000   0.0000   0.0000   0.0000

          k = 0.1334 0.3080 0.0000 ( 16979 PWs)   bands (ev):

   -29.3257 -29.2847 -29.2362 -29.2192 -29.1826 -29.1409 -29.1209 -29.0934
   -29.0789 -29.0289 -11.5695  -7.5222  -3.6616  -2.6208  -1.4108   1.2108
     2.1600   3.0617   4.5497   4.7441

     occupation numbers 
     1.0000   1.0000   1.0000   1.0000   1.0000   1.0000   1.0000   1.0000
     1.0000   1.0000   1.0000   1.0000   1.0000   1.0000   1.0000   0.0000
     0.0000   0.0000   0.0000   0.0000

          k = 0.1334 0.3850 0.0000 ( 17000 PWs)   bands (ev):

   -29.3239 -29.2667 -29.2334 -29.2098 -29.1726 -29.1515 -29.1242 -29.1052
   -29.0913 -29.0300 -11.1529  -7.8668  -3.8999  -2.9606  -1.6012   1.0817
     2.1113   2.8340   4.8679   5.0727

     occupation numbers 
     1.0000   1.0000   1.0000   1.0000   1.0000   1.0000   1.0000   1.0000
     1.0000   1.0000   1.0000   1.0000   1.0000   1.0000   1.0000   0.0000
     0.0000   0.0000   0.0000   0.0000

          k = 0.1334 0.4620 0.0000 ( 16990 PWs)   bands (ev):

   -29.3224 -29.2522 -29.2261 -29.1988 -29.1661 -29.1607 -29.1314 -29.1224
   -29.0952 -29.0309 -10.6960  -8.3341  -3.9855  -3.0614  -1.9556   1.1355
     2.0000   2.6151   4.7729   5.5535

     occupation numbers 
     1.0000   1.0000   1.0000   1.0000   1.0000   1.0000   1.0000   1.0000
     1.0000   1.0000   1.0000   1.0000   1.0000   1.0000   1.0000   0.0000
     0.0000   0.0000   0.0000   0.0000

          k = 0.1334 0.5390 0.0000 ( 16990 PWs)   bands (ev):

   -29.3216 -29.2469 -29.2133 -29.1879 -29.1777 -29.1581 -29.1391 -29.1323
   -29.0967 -29.0314 -10.3150  -8.7439  -4.0138  -2.9473  -2.3229   1.2533
     1.9023   2.4913   4.5460   6.2191

     occupation numbers 
     1.0000   1.0000   1.0000   1.0000   1.0000   1.0000   1.0000   1.0000
     1.0000   1.0000   1.0000   1.0000   1.0000   1.0000   1.0000   0.0000
     0.0000   0.0000   0.0000   0.0000

          k = 0.2000 0.3465 0.0000 ( 16979 PWs)   bands (ev):

   -29.3241 -29.2675 -29.2322 -29.2140 -29.1725 -29.1516 -29.1215 -29.1033
   -29.0918 -29.0303 -11.1941  -7.8050  -3.7248  -3.2740  -1.5308   1.4533
     1.6960   3.2130   4.9299   5.0305

     occupation numbers 
     1.0000   1.0000   1.0000   1.0000   1.0000   1.0000   1.0000   1.0000
     1.0000   1.0000   1.0000   1.0000   1.0000   1.0000   1.0000   0.0000
     0.0000   0.0000   0.0000   0.0000

          k = 0.2000 0.4235 0.0000 ( 17002 PWs)   bands (ev):

   -29.3227 -29.2496 -29.2277 -29.2059 -29.1645 -29.1616 -29.1242 -29.1209
   -29.0978 -29.0316 -10.7544  -8.2150  -3.8535  -3.5017  -1.7977   1.2526
     1.7574   3.1542   5.2174   5.4929

     occupation numbers 
     1.0000   1.0000   1.0000   1.0000   1.0000   1.0000   1.0000   1.0000
     1.0000   1.0000   1.0000   1.0000   1.0000   1.0000   1.0000   0.0000
     0.0000   0.0000   0.0000   0.0000

          k = 0.2000 0.5005 0.0000 ( 16991 PWs)   bands (ev):

   -29.3217 -29.2386 -29.2172 -29.1956 -29.1782 -29.1538 -29.1402 -29.1258
   -29.1011 -29.0326 -10.3045  -8.6719  -4.1270  -3.2511  -2.1654   1.0082
     2.0952   2.8811   5.1172   6.0811

     occupation numbers 
     1.0000   1.0000   1.0000   1.0000   1.0000   1.0000   1.0000   1.0000
     1.0000   1.0000   1.0000   1.0000   1.0000   1.0000   1.0000   0.0000
     0.0000   0.0000   0.0000   0.0000

          k = 0.2000 0.5775 0.0000 ( 16982 PWs)   bands (ev):

   -29.3213 -29.2364 -29.2058 -29.1918 -29.1860 -29.1560 -29.1435 -29.1282
   -29.1023 -29.0329 -10.0544  -8.9294  -4.2232  -3.0452  -2.4093   0.9270
     2.4435   2.5494   5.0262   6.3806

     occupation numbers 
     1.0000   1.0000   1.0000   1.0000   1.0000   1.0000   1.0000   1.0000
     1.0000   1.0000   1.0000   1.0000   1.0000   1.0000   1.0000   0.0000
     0.0000   0.0000   0.0000   0.0000

          k = 0.2667 0.4620 0.0000 ( 17011 PWs)   bands (ev):

   -29.3217 -29.2323 -29.2225 -29.1981 -29.1784 -29.1522 -29.1404 -29.1225
   -29.1037 -29.0331 -10.3056  -8.6337  -4.1877  -3.3529  -2.0871   0.8890
     2.0614   3.1999   5.8381   5.9512

     occupation numbers 
     1.0000   1.0000   1.0000   1.0000   1.0000   1.0000   1.0000   1.0000
     1.0000   1.0000   1.0000   1.0000   1.0000   1.0000   1.0000   0.0000
     0.0000   0.0000   0.0000   0.0000

          k = 0.2667 0.5390 0.0000 ( 16999 PWs)   bands (ev):

   -29.3212 -29.2241 -29.2112 -29.1939 -29.1864 -29.1576 -29.1457 -29.1219
   -29.1081 -29.0339  -9.8807  -9.0454  -4.4250  -3.0268  -2.4165   0.6449
     2.4617   2.9614   5.8765   6.0392

     occupation numbers 
     1.0000   1.0000   1.0000   1.0000   1.0000   1.0000   1.0000   1.0000
     1.0000   1.0000   1.0000   1.0000   1.0000   1.0000   1.0000   0.0000
     0.0000   0.0000   0.0000   0.0000

          k = 0.3334 0.5775 0.0000 ( 17013 PWs)   bands (ev):

   -29.3210 -29.2112 -29.2081 -29.2081 -29.1730 -29.1729 -29.1440 -29.1154
   -29.1154 -29.0345  -9.4527  -9.4527  -4.5491  -2.7120  -2.7120   0.4953
     2.7881   2.7882   5.8206   6.8136

     occupation numbers 
     1.0000   1.0000   1.0000   1.0000   1.0000   1.0000   1.0000   1.0000
     1.0000   1.0000   1.0000   1.0000   1.0000   1.0000   1.0000   0.0000
     0.0000   0.0000   0.0000   0.0000

     highest occupied, lowest unoccupied level (ev):    -0.6245    0.3953

!    total energy              =    -362.92024319 Ry
     estimated scf accuracy    <       0.00000059 Ry

     The total energy is the sum of the following terms:
     one-electron contribution =    -799.75188393 Ry
     hartree contribution      =     404.08720798 Ry
     xc contribution           =     -89.50087904 Ry
     ewald contribution        =     122.24531180 Ry

     convergence has been achieved in   6 iterations

     Forces acting on atoms (cartesian axes, Ry/au):

     atom    1 type  1   force =     0.00000000   -0.00000000    0.00585925
     atom    2 type  1   force =     0.00000000    0.00000000   -0.00585925
     The non-local contrib.  to forces
     atom    1 type  1   force =     0.00000000   -0.00000000    0.59480312
     atom    2 type  1   force =     0.00000000   -0.00000000   -0.59514883
     The ionic contribution  to forces
     atom    1 type  1   force =    -0.00000001    0.00000001  -37.28249446
     atom    2 type  1   force =     0.00000001   -0.00000001   37.28249446
     The local contribution  to forces
     atom    1 type  1   force =    -0.00000000   -0.00000000   36.69837655
     atom    2 type  1   force =     0.00000043   -0.00000025  -36.69905793
     The core correction contribution to forces
     atom    1 type  1   force =    -0.00000000    0.00000000   -0.00877467
     atom    2 type  1   force =     0.00000002   -0.00000001    0.00875974
     The Hubbard contrib.    to forces
     atom    1 type  1   force =     0.00000000    0.00000000    0.00000000
     atom    2 type  1   force =     0.00000000    0.00000000    0.00000000
     The SCF correction term to forces
     atom    1 type  1   force =     0.00000000   -0.00000000    0.00000000
     atom    2 type  1   force =     0.00000000   -0.00000000   -0.00305457

     Total force =     0.005859     Total SCF correction =     0.003055
     SCF correction compared to forces is large: reduce conv_thr to get better values


     Computing stress (Cartesian axis) and pressure

          total   stress  (Ry/bohr**3)                   (kbar)     P=       -1.82
  -0.00000873   0.00000000  -0.00000000           -1.28        0.00       -0.00
  -0.00000000  -0.00000873   0.00000000           -0.00       -1.28        0.00
   0.00000000  -0.00000000  -0.00001957            0.00       -0.00       -2.88

     kinetic stress (kbar)  14792.76      0.00     -0.00
                               -0.00  14792.76      0.00
                               -0.00      0.00  14820.32

     local   stress (kbar) -69848.12      0.00     -0.00
                                0.00 -69848.12      0.00
                               -0.00      0.00  65166.06

     nonloc. stress (kbar)  -6414.41     -0.00      0.00
                               -0.00  -6414.41      0.00
                                0.00      0.00  -6398.68

     hartree stress (kbar)  35868.00     -0.00     -0.00
                               -0.00  35868.00     -0.00
                               -0.00     -0.00 -29434.18

     exc-cor stress (kbar)   3579.54      0.00      0.00
                                0.00   3579.54      0.00
                                0.00      0.00   3579.54

     corecor stress (kbar)  -5496.91     -0.00      0.00
                               -0.00  -5496.91     -0.00
                                0.00     -0.00  -5497.45

     ewald   stress (kbar)  27517.86     -0.00      0.00
                               -0.00  27517.86     -0.00
                                0.00     -0.00 -42238.49

     hubbard stress (kbar)      0.00      0.00      0.00
                                0.00      0.00      0.00
                                0.00      0.00      0.00

     DFT-D   stress (kbar)      0.00      0.00      0.00
                                0.00      0.00      0.00
                                0.00      0.00      0.00

     XDM     stress (kbar)      0.00      0.00      0.00
                                0.00      0.00      0.00
                                0.00      0.00      0.00

     dft-nl  stress (kbar)      0.00      0.00      0.00
                                0.00      0.00      0.00
                                0.00      0.00      0.00

     TS-vdW  stress (kbar)      0.00      0.00      0.00
                                0.00      0.00      0.00
                                0.00      0.00      0.00


     Energy error            =      6.0E-05
     Gradient error          =      5.9E-03
     Cell gradient error     =      8.7E-06


     number of scf cycles    =   2
     number of bfgs steps    =   1

     enthalpy old            =    -362.9201832940 Ry
     enthalpy new            =    -362.9202431865 Ry

     CASE: enthalpy_new < enthalpy_old

     new trust radius        =       0.0086901799 bohr
     new conv_thr            =       0.0000000100 Ry

     new unit-cell volume =   1404.31416 a.u.^3 (   208.09789 Ang^3 )
     density =      0.19169 g/cm^3

CELL_PARAMETERS (alat=  7.56759724)
   0.999456157   0.000000000   0.000000000
  -0.499728079   0.865554422   0.000000000
   0.000000000   0.000000000   3.745692454

ATOMIC_POSITIONS (crystal)
Sb            0.0000000000        0.0000000000        0.5000000000    0   0   0
Sb            0.3333333330        0.6666666670        0.6094147179



     Writing output data file ./tmp/Sb.save/
     NEW-OLD atomic charge density approx. for the potential
     extrapolated charge   29.98069, renormalised to   30.00000

     total cpu time spent up to now is       50.7 secs

     Self-consistent Calculation

     iteration #  1     ecut=    80.00 Ry     beta= 0.70
     Davidson diagonalization with overlap
     ethr =  1.00E-06,  avg # of iterations =  6.3

     total cpu time spent up to now is       57.5 secs

     total energy              =    -362.92004773 Ry
     estimated scf accuracy    <       0.00016139 Ry

     iteration #  2     ecut=    80.00 Ry     beta= 0.70
     Davidson diagonalization with overlap
     ethr =  5.38E-07,  avg # of iterations =  6.4

     total cpu time spent up to now is       62.3 secs

     total energy              =    -362.92028177 Ry
     estimated scf accuracy    <       0.00038812 Ry

     iteration #  3     ecut=    80.00 Ry     beta= 0.70
     Davidson diagonalization with overlap
     ethr =  5.38E-07,  avg # of iterations =  2.3

     total cpu time spent up to now is       65.2 secs

     total energy              =    -362.92030038 Ry
     estimated scf accuracy    <       0.00005748 Ry

     iteration #  4     ecut=    80.00 Ry     beta= 0.70
     Davidson diagonalization with overlap
     ethr =  1.92E-07,  avg # of iterations =  1.2

     total cpu time spent up to now is       67.6 secs

     total energy              =    -362.92029936 Ry
     estimated scf accuracy    <       0.00002818 Ry

     iteration #  5     ecut=    80.00 Ry     beta= 0.70
     Davidson diagonalization with overlap
     ethr =  9.39E-08,  avg # of iterations =  1.0

     total cpu time spent up to now is       70.1 secs

     total energy              =    -362.92029350 Ry
     estimated scf accuracy    <       0.00001751 Ry

     iteration #  6     ecut=    80.00 Ry     beta= 0.70
     Davidson diagonalization with overlap
     ethr =  5.84E-08,  avg # of iterations =  2.0

     total cpu time spent up to now is       72.9 secs

     total energy              =    -362.92029360 Ry
     estimated scf accuracy    <       0.00000321 Ry

     iteration #  7     ecut=    80.00 Ry     beta= 0.70
     Davidson diagonalization with overlap
     ethr =  1.07E-08,  avg # of iterations =  2.0

     total cpu time spent up to now is       75.6 secs

     total energy              =    -362.92029382 Ry
     estimated scf accuracy    <       0.00000032 Ry

     iteration #  8     ecut=    80.00 Ry     beta= 0.70
     Davidson diagonalization with overlap
     ethr =  1.06E-09,  avg # of iterations =  2.9

     total cpu time spent up to now is       78.7 secs

     End of self-consistent calculation

          k = 0.0000 0.0000 0.0000 ( 17049 PWs)   bands (ev):

   -29.3418 -29.3418 -29.2512 -29.2512 -29.2127 -29.1250 -29.1250 -29.0885
   -29.0324 -29.0324 -12.5387  -7.3188  -1.6122  -0.6399  -0.6399   1.0190
     2.1770   2.1770   3.7025   3.8271

     occupation numbers 
     1.0000   1.0000   1.0000   1.0000   1.0000   1.0000   1.0000   1.0000
     1.0000   1.0000   1.0000   1.0000   1.0000   1.0000   1.0000   0.0000
     0.0000   0.0000   0.0000   0.0000

          k =-0.0000 0.0770 0.0000 ( 17019 PWs)   bands (ev):

   -29.3413 -29.3390 -29.2510 -29.2495 -29.2117 -29.1261 -29.1251 -29.0891
   -29.0357 -29.0326 -12.4872  -7.3078  -1.5834  -1.2127  -0.7668   1.4315
     2.0692   2.2953   3.7804   3.8847

     occupation numbers 
     1.0000   1.0000   1.0000   1.0000   1.0000   1.0000   1.0000   1.0000
     1.0000   1.0000   1.0000   1.0000   1.0000   1.0000   1.0000   0.0000
     0.0000   0.0000   0.0000   0.0000

          k =-0.0000 0.1540 0.0000 ( 17019 PWs)   bands (ev):

   -29.3401 -29.3310 -29.2503 -29.2445 -29.2087 -29.1295 -29.1258 -29.0910
   -29.0453 -29.0330 -12.3336  -7.2888  -2.1744  -1.5085  -1.0719   1.2952
     2.4745   2.5525   3.9658   4.0700

     occupation numbers 
     1.0000   1.0000   1.0000   1.0000   1.0000   1.0000   1.0000   1.0000
     1.0000   1.0000   1.0000   1.0000   1.0000   1.0000   1.0000   0.0000
     0.0000   0.0000   0.0000   0.0000

          k =-0.0000 0.2311 0.0000 ( 16969 PWs)   bands (ev):

   -29.3383 -29.3182 -29.2496 -29.2366 -29.2035 -29.1350 -29.1273 -29.0940
   -29.0603 -29.0337 -12.0812  -7.3085  -3.0703  -1.4328  -1.4328   0.8072
     2.7824   2.8466   4.0999   4.3678

     occupation numbers 
     1.0000   1.0000   1.0000   1.0000   1.0000   1.0000   1.0000   1.0000
     1.0000   1.0000   1.0000   1.0000   1.0000   1.0000   1.0000   0.0000
     0.0000   0.0000   0.0000   0.0000

          k =-0.0000 0.3081 0.0000 ( 16963 PWs)   bands (ev):

   -29.3362 -29.3016 -29.2487 -29.2263 -29.1960 -29.1425 -29.1305 -29.0982
   -29.0787 -29.0345 -11.7371  -7.4519  -3.7301  -1.7717  -1.4616   0.4539
     2.6946   2.8991   4.3285   4.6536

     occupation numbers 
     1.0000   1.0000   1.0000   1.0000   1.0000   1.0000   1.0000   1.0000
     1.0000   1.0000   1.0000   1.0000   1.0000   1.0000   1.0000   0.0000
     0.0000   0.0000   0.0000   0.0000

          k =-0.0000 0.3851 0.0000 ( 16970 PWs)   bands (ev):

   -29.3341 -29.2836 -29.2462 -29.2143 -29.1870 -29.1519 -29.1362 -29.1084
   -29.0931 -29.0353 -11.3167  -7.7918  -4.0508  -2.0482  -1.7038   0.3941
     2.2791   2.9171   4.6853   4.8173

     occupation numbers 
     1.0000   1.0000   1.0000   1.0000   1.0000   1.0000   1.0000   1.0000
     1.0000   1.0000   1.0000   1.0000   1.0000   1.0000   1.0000   0.0000
     0.0000   0.0000   0.0000   0.0000

          k =-0.0000 0.4621 0.0000 ( 16994 PWs)   bands (ev):

   -29.3325 -29.2698 -29.2384 -29.2013 -29.1786 -29.1627 -29.1446 -29.1262
   -29.0975 -29.0360 -10.8591  -8.2758  -4.0708  -2.2413  -2.0811   0.5731
     1.8704   2.8915   4.4615   5.3535

     occupation numbers 
     1.0000   1.0000   1.0000   1.0000   1.0000   1.0000   1.0000   1.0000
     1.0000   1.0000   1.0000   1.0000   1.0000   1.0000   1.0000   0.0000
     0.0000   0.0000   0.0000   0.0000

          k =-0.0000 0.5392 0.0000 ( 16970 PWs)   bands (ev):

   -29.3316 -29.2645 -29.2263 -29.1882 -29.1763 -29.1747 -29.1496 -29.1398
   -29.0989 -29.0363 -10.4869  -8.6921  -3.9703  -2.3796  -2.3402   0.8040
     1.5704   2.8677   4.2404   5.9916

     occupation numbers 
     1.0000   1.0000   1.0000   1.0000   1.0000   1.0000   1.0000   1.0000
     1.0000   1.0000   1.0000   1.0000   1.0000   1.0000   1.0000   0.0000
     0.0000   0.0000   0.0000   0.0000

          k = 0.0667 0.1155 0.0000 ( 17041 PWs)   bands (ev):

   -29.3405 -29.3336 -29.2503 -29.2464 -29.2097 -29.1285 -29.1254 -29.0904
   -29.0421 -29.0329 -12.3846  -7.2926  -1.8854  -1.5315  -1.0448   1.7953
     1.8061   2.6383   3.9344   3.9884

     occupation numbers 
     1.0000   1.0000   1.0000   1.0000   1.0000   1.0000   1.0000   1.0000
     1.0000   1.0000   1.0000   1.0000   1.0000   1.0000   1.0000   0.0000
     0.0000   0.0000   0.0000   0.0000

          k = 0.0667 0.1926 0.0000 ( 16968 PWs)   bands (ev):

   -29.3390 -29.3232 -29.2493 -29.2404 -29.2055 -29.1332 -29.1262 -29.0928
   -29.0544 -29.0335 -12.1815  -7.2914  -2.7131  -1.5071  -1.4230   1.3306
     2.2493   2.9858   4.1109   4.2278

     occupation numbers 
     1.0000   1.0000   1.0000   1.0000   1.0000   1.0000   1.0000   1.0000
     1.0000   1.0000   1.0000   1.0000   1.0000   1.0000   1.0000   0.0000
     0.0000   0.0000   0.0000   0.0000

          k = 0.0667 0.2696 0.0000 ( 16952 PWs)   bands (ev):

   -29.3371 -29.3083 -29.2482 -29.2320 -29.1987 -29.1401 -29.1280 -29.0964
   -29.0713 -29.0343 -11.8827  -7.3698  -3.4397  -1.9099  -1.3967   0.8890
     2.5522   2.9859   4.2469   4.5399

     occupation numbers 
     1.0000   1.0000   1.0000   1.0000   1.0000   1.0000   1.0000   1.0000
     1.0000   1.0000   1.0000   1.0000   1.0000   1.0000   1.0000   0.0000
     0.0000   0.0000   0.0000   0.0000

          k = 0.0667 0.3466 0.0000 ( 16977 PWs)   bands (ev):

   -29.3350 -29.2905 -29.2467 -29.2215 -29.1899 -29.1490 -29.1317 -29.1027
   -29.0889 -29.0353 -11.4983  -7.6140  -3.9038  -2.2555  -1.5003   0.6509
     2.6186   2.6732   4.5665   4.8231

     occupation numbers 
     1.0000   1.0000   1.0000   1.0000   1.0000   1.0000   1.0000   1.0000
     1.0000   1.0000   1.0000   1.0000   1.0000   1.0000   1.0000   0.0000
     0.0000   0.0000   0.0000   0.0000

          k = 0.0667 0.4236 0.0000 ( 16999 PWs)   bands (ev):

   -29.3332 -29.2736 -29.2422 -29.2096 -29.1805 -29.1596 -29.1382 -29.1184
   -29.0972 -29.0361 -11.0520  -8.0418  -4.0573  -2.4947  -1.8033   0.6986
     2.1672   2.6957   4.6948   5.1193

     occupation numbers 
     1.0000   1.0000   1.0000   1.0000   1.0000   1.0000   1.0000   1.0000
     1.0000   1.0000   1.0000   1.0000   1.0000   1.0000   1.0000   0.0000
     0.0000   0.0000   0.0000   0.0000

          k = 0.0667 0.5006 0.0000 ( 16994 PWs)   bands (ev):

   -29.3319 -29.2640 -29.2311 -29.1970 -29.1757 -29.1695 -29.1465 -29.1347
   -29.0996 -29.0367 -10.6103  -8.5260  -4.0102  -2.5968  -2.1823   0.9425
     1.7487   2.7042   4.4106   5.7331

     occupation numbers 
     1.0000   1.0000   1.0000   1.0000   1.0000   1.0000   1.0000   1.0000
     1.0000   1.0000   1.0000   1.0000   1.0000   1.0000   1.0000   0.0000
     0.0000   0.0000   0.0000   0.0000

          k = 0.0667 0.5777 0.0000 ( 17000 PWs)   bands (ev):

   -29.3315 -29.2617 -29.2226 -29.1853 -29.1852 -29.1718 -29.1469 -29.1437
   -29.1003 -29.0369 -10.3846  -8.7759  -3.9570  -2.5619  -2.4166   1.1744
     1.4742   2.7106   4.2763   6.4411

     occupation numbers 
     1.0000   1.0000   1.0000   1.0000   1.0000   1.0000   1.0000   1.0000
     1.0000   1.0000   1.0000   1.0000   1.0000   1.0000   1.0000   0.0000
     0.0000   0.0000   0.0000   0.0000

          k = 0.1334 0.2311 0.0000 ( 16943 PWs)   bands (ev):

   -29.3374 -29.3106 -29.2472 -29.2350 -29.1994 -29.1396 -29.1268 -29.0959
   -29.0686 -29.0344 -11.9315  -7.3458  -3.2524  -2.1058  -1.3859   1.4195
     2.1076   3.1465   4.3640   4.3836

     occupation numbers 
     1.0000   1.0000   1.0000   1.0000   1.0000   1.0000   1.0000   1.0000
     1.0000   1.0000   1.0000   1.0000   1.0000   1.0000   1.0000   0.0000
     0.0000   0.0000   0.0000   0.0000

          k = 0.1334 0.3081 0.0000 ( 16979 PWs)   bands (ev):

   -29.3355 -29.2941 -29.2450 -29.2278 -29.1907 -29.1485 -29.1282 -29.1007
   -29.0859 -29.0355 -11.5906  -7.5230  -3.6766  -2.6376  -1.4085   1.2132
     2.1637   3.0644   4.5501   4.7456

     occupation numbers 
     1.0000   1.0000   1.0000   1.0000   1.0000   1.0000   1.0000   1.0000
     1.0000   1.0000   1.0000   1.0000   1.0000   1.0000   1.0000   0.0000
     0.0000   0.0000   0.0000   0.0000

          k = 0.1334 0.3851 0.0000 ( 17000 PWs)   bands (ev):

   -29.3337 -29.2759 -29.2421 -29.2183 -29.1806 -29.1592 -29.1315 -29.1130
   -29.0981 -29.0366 -11.1731  -7.8719  -3.9118  -2.9773  -1.6006   1.0852
     2.1171   2.8345   4.8696   5.0767

     occupation numbers 
     1.0000   1.0000   1.0000   1.0000   1.0000   1.0000   1.0000   1.0000
     1.0000   1.0000   1.0000   1.0000   1.0000   1.0000   1.0000   0.0000
     0.0000   0.0000   0.0000   0.0000

          k = 0.1334 0.4621 0.0000 ( 16990 PWs)   bands (ev):

   -29.3323 -29.2613 -29.2348 -29.2071 -29.1740 -29.1687 -29.1388 -29.1302
   -29.1021 -29.0375 -10.7150  -8.3436  -3.9955  -3.0766  -1.9565   1.1404
     2.0034   2.6184   4.7745   5.5588

     occupation numbers 
     1.0000   1.0000   1.0000   1.0000   1.0000   1.0000   1.0000   1.0000
     1.0000   1.0000   1.0000   1.0000   1.0000   1.0000   1.0000   0.0000
     0.0000   0.0000   0.0000   0.0000

          k = 0.1334 0.5392 0.0000 ( 16990 PWs)   bands (ev):

   -29.3315 -29.2558 -29.2218 -29.1962 -29.1857 -29.1660 -29.1470 -29.1399
   -29.1037 -29.0381 -10.3329  -8.7561  -4.0239  -2.9610  -2.3244   1.2598
     1.9005   2.4998   4.5458   6.2254

     occupation numbers 
     1.0000   1.0000   1.0000   1.0000   1.0000   1.0000   1.0000   1.0000
     1.0000   1.0000   1.0000   1.0000   1.0000   1.0000   1.0000   0.0000
     0.0000   0.0000   0.0000   0.0000

          k = 0.2001 0.3466 0.0000 ( 16979 PWs)   bands (ev):

   -29.3339 -29.2767 -29.2409 -29.2225 -29.1805 -29.1593 -29.1288 -29.1110
   -29.0987 -29.0369 -11.2144  -7.8094  -3.7369  -3.2914  -1.5296   1.4589
     1.7005   3.2169   4.9239   5.0336

     occupation numbers 
     1.0000   1.0000   1.0000   1.0000   1.0000   1.0000   1.0000   1.0000
     1.0000   1.0000   1.0000   1.0000   1.0000   1.0000   1.0000   0.0000
     0.0000   0.0000   0.0000   0.0000

          k = 0.2001 0.4236 0.0000 ( 17002 PWs)   bands (ev):

   -29.3325 -29.2586 -29.2363 -29.2144 -29.1724 -29.1695 -29.1317 -29.1286
   -29.1047 -29.0383 -10.7736  -8.2233  -3.8680  -3.5140  -1.7980   1.2578
     1.7645   3.1593   5.2130   5.4977

     occupation numbers 
     1.0000   1.0000   1.0000   1.0000   1.0000   1.0000   1.0000   1.0000
     1.0000   1.0000   1.0000   1.0000   1.0000   1.0000   1.0000   0.0000
     0.0000   0.0000   0.0000   0.0000

          k = 0.2001 0.5006 0.0000 ( 16991 PWs)   bands (ev):

   -29.3315 -29.2474 -29.2258 -29.2040 -29.1862 -29.1617 -29.1482 -29.1332
   -29.1081 -29.0392 -10.3224  -8.6834  -4.1430  -3.2600  -2.1667   1.0134
     2.1032   2.8872   5.1131   6.0863

     occupation numbers 
     1.0000   1.0000   1.0000   1.0000   1.0000   1.0000   1.0000   1.0000
     1.0000   1.0000   1.0000   1.0000   1.0000   1.0000   1.0000   0.0000
     0.0000   0.0000   0.0000   0.0000

          k = 0.2001 0.5777 0.0000 ( 16982 PWs)   bands (ev):

   -29.3312 -29.2452 -29.2143 -29.2000 -29.1943 -29.1640 -29.1515 -29.1356
   -29.1093 -29.0396 -10.0715  -8.9424  -4.2393  -3.0534  -2.4109   0.9322
     2.4543   2.5536   5.0214   6.3865

     occupation numbers 
     1.0000   1.0000   1.0000   1.0000   1.0000   1.0000   1.0000   1.0000
     1.0000   1.0000   1.0000   1.0000   1.0000   1.0000   1.0000   0.0000
     0.0000   0.0000   0.0000   0.0000

          k = 0.2668 0.4621 0.0000 ( 17011 PWs)   bands (ev):

   -29.3315 -29.2410 -29.2311 -29.2066 -29.1864 -29.1601 -29.1485 -29.1298
   -29.1107 -29.0398 -10.3235  -8.6448  -4.2065  -3.3594  -2.0883   0.8936
     2.0707   3.2095   5.8316   5.9549

     occupation numbers 
     1.0000   1.0000   1.0000   1.0000   1.0000   1.0000   1.0000   1.0000
     1.0000   1.0000   1.0000   1.0000   1.0000   1.0000   1.0000   0.0000
     0.0000   0.0000   0.0000   0.0000

          k = 0.2668 0.5392 0.0000 ( 16999 PWs)   bands (ev):

   -29.3310 -29.2327 -29.2196 -29.2021 -29.1948 -29.1657 -29.1535 -29.1292
   -29.1152 -29.0406  -9.8973  -9.0587  -4.4441  -3.0319  -2.4186   0.6494
     2.4725   2.9718   5.8744   6.0382

     occupation numbers 
     1.0000   1.0000   1.0000   1.0000   1.0000   1.0000   1.0000   1.0000
     1.0000   1.0000   1.0000   1.0000   1.0000   1.0000   1.0000   0.0000
     0.0000   0.0000   0.0000   0.0000

          k = 0.3335 0.5777 0.0000 ( 17013 PWs)   bands (ev):

   -29.3308 -29.2196 -29.2165 -29.2165 -29.1813 -29.1813 -29.1518 -29.1226
   -29.1226 -29.0412  -9.4677  -9.4677  -4.5689  -2.7153  -2.7153   0.4996
     2.7998   2.7998   5.8245   6.8112

     occupation numbers 
     1.0000   1.0000   1.0000   1.0000   1.0000   1.0000   1.0000   1.0000
     1.0000   1.0000   1.0000   1.0000   1.0000   1.0000   1.0000   0.0000
     0.0000   0.0000   0.0000   0.0000

     highest occupied, lowest unoccupied level (ev):    -0.6399    0.3941

!    total energy              =    -362.92029392 Ry
     estimated scf accuracy    <          1.7E-09 Ry

     The total energy is the sum of the following terms:
     one-electron contribution =    -800.74076984 Ry
     hartree contribution      =     404.58637242 Ry
     xc contribution           =     -89.50457971 Ry
     ewald contribution        =     122.73868321 Ry

     convergence has been achieved in   8 iterations

     Forces acting on atoms (cartesian axes, Ry/au):

     atom    1 type  1   force =     0.00000000    0.00000000    0.00422268
     atom    2 type  1   force =     0.00000000    0.00000000   -0.00422268
     The non-local contrib.  to forces
     atom    1 type  1   force =     0.00000000   -0.00000000    0.59635654
     atom    2 type  1   force =    -0.00000000    0.00000000   -0.59636225
     The ionic contribution  to forces
     atom    1 type  1   force =    -0.00000001    0.00000001  -37.29438727
     atom    2 type  1   force =     0.00000001   -0.00000001   37.29438727
     The local contribution  to forces
     atom    1 type  1   force =     0.00000000   -0.00000000   36.71076631
     atom    2 type  1   force =     0.00000043   -0.00000025  -36.71080155
     The core correction contribution to forces
     atom    1 type  1   force =    -0.00000000    0.00000000   -0.00853082
     atom    2 type  1   force =     0.00000002   -0.00000001    0.00853006
     The Hubbard contrib.    to forces
     atom    1 type  1   force =     0.00000000    0.00000000    0.00000000
     atom    2 type  1   force =     0.00000000    0.00000000    0.00000000
     The SCF correction term to forces
     atom    1 type  1   force =     0.00000000   -0.00000000    0.00000000
     atom    2 type  1   force =     0.00000000   -0.00000000    0.00001737

     Total force =     0.004223     Total SCF correction =     0.000017


     Computing stress (Cartesian axis) and pressure

          total   stress  (Ry/bohr**3)                   (kbar)     P=       -0.95
  -0.00000401  -0.00000000   0.00000000           -0.59       -0.00        0.00
   0.00000000  -0.00000401   0.00000000            0.00       -0.59        0.00
   0.00000000   0.00000000  -0.00001140            0.00        0.00       -1.68

     kinetic stress (kbar)  14802.53     -0.00     -0.00
                               -0.00  14802.53      0.00
                               -0.00      0.00  14830.97

     local   stress (kbar) -70015.48      0.00     -0.00
                                0.00 -70015.48      0.00
                               -0.00      0.00  65348.60

     nonloc. stress (kbar)  -6418.03     -0.00      0.00
                               -0.00  -6418.03     -0.00
                               -0.00      0.00  -6402.22

     hartree stress (kbar)  35949.46     -0.00     -0.00
                               -0.00  35949.46     -0.00
                               -0.00     -0.00 -29517.59

     exc-cor stress (kbar)   3581.73      0.00      0.00
                                0.00   3581.73      0.00
                                0.00      0.00   3581.73

     corecor stress (kbar)  -5500.47     -0.00      0.00
                               -0.00  -5500.47     -0.00
                                0.00     -0.00  -5501.01

     ewald   stress (kbar)  27599.66     -0.00      0.00
                               -0.00  27599.66     -0.00
                                0.00     -0.00 -42342.16

     hubbard stress (kbar)      0.00      0.00      0.00
                                0.00      0.00      0.00
                                0.00      0.00      0.00

     DFT-D   stress (kbar)      0.00      0.00      0.00
                                0.00      0.00      0.00
                                0.00      0.00      0.00

     XDM     stress (kbar)      0.00      0.00      0.00
                                0.00      0.00      0.00
                                0.00      0.00      0.00

     dft-nl  stress (kbar)      0.00      0.00      0.00
                                0.00      0.00      0.00
                                0.00      0.00      0.00

     TS-vdW  stress (kbar)      0.00      0.00      0.00
                                0.00      0.00      0.00
                                0.00      0.00      0.00


     Energy error            =      5.1E-05
     Gradient error          =      4.2E-03
     Cell gradient error     =      4.0E-06


     number of scf cycles    =   3
     number of bfgs steps    =   2

     enthalpy old            =    -362.9202431865 Ry
     enthalpy new            =    -362.9202939224 Ry

     CASE: enthalpy_new < enthalpy_old

     new trust radius        =       0.0130352698 bohr
     new conv_thr            =       0.0000000100 Ry

     new unit-cell volume =   1403.28241 a.u.^3 (   207.94500 Ang^3 )
     density =      0.19183 g/cm^3

CELL_PARAMETERS (alat=  7.56759724)
   0.999088942   0.000000000   0.000000000
  -0.499544471   0.865236404   0.000000000
   0.000000000   0.000000000   3.745692454

ATOMIC_POSITIONS (crystal)
Sb            0.0000000000        0.0000000000        0.5000000000    0   0   0
Sb            0.3333333330        0.6666666670        0.6089548534



     Writing output data file ./tmp/Sb.save/
     NEW-OLD atomic charge density approx. for the potential
     extrapolated charge   29.97794, renormalised to   30.00000

     total cpu time spent up to now is       81.7 secs

     Self-consistent Calculation

     iteration #  1     ecut=    80.00 Ry     beta= 0.70
     Davidson diagonalization with overlap
     c_bands:  1 eigenvalues not converged
     ethr =  1.00E-06,  avg # of iterations =  7.4

     total cpu time spent up to now is       88.5 secs

     total energy              =    -362.92004313 Ry
     estimated scf accuracy    <       0.00017279 Ry

     iteration #  2     ecut=    80.00 Ry     beta= 0.70
     Davidson diagonalization with overlap
     ethr =  5.76E-07,  avg # of iterations =  6.7

     total cpu time spent up to now is       93.7 secs

     total energy              =    -362.92032591 Ry
     estimated scf accuracy    <       0.00045869 Ry

     iteration #  3     ecut=    80.00 Ry     beta= 0.70
     Davidson diagonalization with overlap
     ethr =  5.76E-07,  avg # of iterations =  2.2

     total cpu time spent up to now is       96.7 secs

     total energy              =    -362.92034108 Ry
     estimated scf accuracy    <       0.00007579 Ry

     iteration #  4     ecut=    80.00 Ry     beta= 0.70
     Davidson diagonalization with overlap
     ethr =  2.53E-07,  avg # of iterations =  1.5

     total cpu time spent up to now is       99.4 secs

     total energy              =    -362.92033295 Ry
     estimated scf accuracy    <       0.00003024 Ry

     iteration #  5     ecut=    80.00 Ry     beta= 0.70
     Davidson diagonalization with overlap
     ethr =  1.01E-07,  avg # of iterations =  2.0

     total cpu time spent up to now is      102.3 secs

     total energy              =    -362.92033409 Ry
     estimated scf accuracy    <       0.00000551 Ry

     iteration #  6     ecut=    80.00 Ry     beta= 0.70
     Davidson diagonalization with overlap
     ethr =  1.84E-08,  avg # of iterations =  2.0

     total cpu time spent up to now is      105.3 secs

     total energy              =    -362.92033412 Ry
     estimated scf accuracy    <       0.00000119 Ry

     iteration #  7     ecut=    80.00 Ry     beta= 0.70
     Davidson diagonalization with overlap
     ethr =  3.96E-09,  avg # of iterations =  2.1

     total cpu time spent up to now is      108.1 secs

     total energy              =    -362.92033417 Ry
     estimated scf accuracy    <       0.00000014 Ry

     iteration #  8     ecut=    80.00 Ry     beta= 0.70
     Davidson diagonalization with overlap
     ethr =  4.58E-10,  avg # of iterations =  2.3

     total cpu time spent up to now is      111.3 secs

     End of self-consistent calculation

          k = 0.0000 0.0000 0.0000 ( 17049 PWs)   bands (ev):

   -29.3488 -29.3488 -29.2568 -29.2568 -29.2172 -29.1282 -29.1282 -29.0913
   -29.0346 -29.0346 -12.5659  -7.3074  -1.6017  -0.6583  -0.6583   1.0112
     2.1753   2.1753   3.7031   3.8332

     occupation numbers 
     1.0000   1.0000   1.0000   1.0000   1.0000   1.0000   1.0000   1.0000
     1.0000   1.0000   1.0000   1.0000   1.0000   1.0000   1.0000   0.0000
     0.0000   0.0000   0.0000   0.0000

          k =-0.0000 0.0771 0.0000 ( 17019 PWs)   bands (ev):

   -29.3483 -29.3460 -29.2565 -29.2550 -29.2163 -29.1293 -29.1283 -29.0920
   -29.0379 -29.0348 -12.5143  -7.2965  -1.5729  -1.2318  -0.7855   1.4254
     2.0687   2.2949   3.7804   3.8905

     occupation numbers 
     1.0000   1.0000   1.0000   1.0000   1.0000   1.0000   1.0000   1.0000
     1.0000   1.0000   1.0000   1.0000   1.0000   1.0000   1.0000   0.0000
     0.0000   0.0000   0.0000   0.0000

          k =-0.0000 0.1541 0.0000 ( 17019 PWs)   bands (ev):

   -29.3471 -29.3378 -29.2559 -29.2500 -29.2133 -29.1328 -29.1290 -29.0939
   -29.0476 -29.0352 -12.3603  -7.2779  -2.1949  -1.4982  -1.0912   1.2924
     2.4781   2.5558   3.9665   4.0735

     occupation numbers 
     1.0000   1.0000   1.0000   1.0000   1.0000   1.0000   1.0000   1.0000
     1.0000   1.0000   1.0000   1.0000   1.0000   1.0000   1.0000   0.0000
     0.0000   0.0000   0.0000   0.0000

          k =-0.0000 0.2312 0.0000 ( 16969 PWs)   bands (ev):

   -29.3453 -29.3248 -29.2551 -29.2419 -29.2080 -29.1384 -29.1306 -29.0969
   -29.0628 -29.0359 -12.1073  -7.2993  -3.0910  -1.4529  -1.4231   0.8062
     2.7904   2.8540   4.1014   4.3728

     occupation numbers 
     1.0000   1.0000   1.0000   1.0000   1.0000   1.0000   1.0000   1.0000
     1.0000   1.0000   1.0000   1.0000   1.0000   1.0000   1.0000   0.0000
     0.0000   0.0000   0.0000   0.0000

          k =-0.0000 0.3082 0.0000 ( 16963 PWs)   bands (ev):

   -29.3431 -29.3080 -29.2542 -29.2314 -29.2004 -29.1461 -29.1338 -29.1014
   -29.0814 -29.0367 -11.7623  -7.4469  -3.7482  -1.7926  -1.4534   0.4547
     2.6996   2.9110   4.3335   4.6604

     occupation numbers 
     1.0000   1.0000   1.0000   1.0000   1.0000   1.0000   1.0000   1.0000
     1.0000   1.0000   1.0000   1.0000   1.0000   1.0000   1.0000   0.0000
     0.0000   0.0000   0.0000   0.0000

          k =-0.0000 0.3853 0.0000 ( 16970 PWs)   bands (ev):

   -29.3411 -29.2897 -29.2516 -29.2192 -29.1914 -29.1556 -29.1394 -29.1122
   -29.0956 -29.0376 -11.3406  -7.7936  -4.0634  -2.0697  -1.6979   0.3962
     2.2833   2.9313   4.6949   4.8234

     occupation numbers 
     1.0000   1.0000   1.0000   1.0000   1.0000   1.0000   1.0000   1.0000
     1.0000   1.0000   1.0000   1.0000   1.0000   1.0000   1.0000   0.0000
     0.0000   0.0000   0.0000   0.0000

          k =-0.0000 0.4623 0.0000 ( 16994 PWs)   bands (ev):

   -29.3394 -29.2756 -29.2437 -29.2060 -29.1828 -29.1667 -29.1479 -29.1303
   -29.1001 -29.0382 -10.8816  -8.2842  -4.0778  -2.2632  -2.0768   0.5733
     1.8778   2.9069   4.4698   5.3618

     occupation numbers 
     1.0000   1.0000   1.0000   1.0000   1.0000   1.0000   1.0000   1.0000
     1.0000   1.0000   1.0000   1.0000   1.0000   1.0000   1.0000   0.0000
     0.0000   0.0000   0.0000   0.0000

[...]
     1.0000   1.0000   1.0000   1.0000   1.0000   1.0000   1.0000   0.0000
     0.0000   0.0000   0.0000   0.0000

          k = 0.0000 0.0770 0.0000 ( 17003 PWs)   bands (ev):

   -29.3590 -29.3566 -29.2666 -29.2652 -29.2256 -29.1384 -29.1374 -29.1008
   -29.0466 -29.0434 -12.5297  -7.2928  -1.5673  -1.2565  -0.8108   1.4033
     2.0541   2.2803   3.7748   3.8880

     occupation numbers 
     1.0000   1.0000   1.0000   1.0000   1.0000   1.0000   1.0000   1.0000
     1.0000   1.0000   1.0000   1.0000   1.0000   1.0000   1.0000   0.0000
     0.0000   0.0000   0.0000   0.0000

          k = 0.0000 0.1540 0.0000 ( 17005 PWs)   bands (ev):

   -29.3578 -29.3484 -29.2659 -29.2600 -29.2226 -29.1419 -29.1380 -29.1027
   -29.0563 -29.0439 -12.3759  -7.2754  -2.2177  -1.4934  -1.1160   1.2774
     2.4637   2.5432   3.9604   4.0688

     occupation numbers 
     1.0000   1.0000   1.0000   1.0000   1.0000   1.0000   1.0000   1.0000
     1.0000   1.0000   1.0000   1.0000   1.0000   1.0000   1.0000   0.0000
     0.0000   0.0000   0.0000   0.0000

          k = 0.0000 0.2310 0.0000 ( 16949 PWs)   bands (ev):

   -29.3559 -29.3353 -29.2652 -29.2519 -29.2174 -29.1476 -29.1396 -29.1059
   -29.0716 -29.0446 -12.1231  -7.2993  -3.1104  -1.4772  -1.4199   0.7949
     2.7811   2.8444   4.0965   4.3682

     occupation numbers 
     1.0000   1.0000   1.0000   1.0000   1.0000   1.0000   1.0000   1.0000
     1.0000   1.0000   1.0000   1.0000   1.0000   1.0000   1.0000   0.0000
     0.0000   0.0000   0.0000   0.0000

          k = 0.0000 0.3080 0.0000 ( 16947 PWs)   bands (ev):

   -29.3538 -29.3184 -29.2641 -29.2413 -29.2099 -29.1553 -29.1427 -29.1106
   -29.0901 -29.0454 -11.7783  -7.4512  -3.7627  -1.8164  -1.4528   0.4472
     2.6918   2.9051   4.3312   4.6566

     occupation numbers 
     1.0000   1.0000   1.0000   1.0000   1.0000   1.0000   1.0000   1.0000
     1.0000   1.0000   1.0000   1.0000   1.0000   1.0000   1.0000   0.0000
     0.0000   0.0000   0.0000   0.0000

          k = 0.0000 0.3850 0.0000 ( 16966 PWs)   bands (ev):

   -29.3517 -29.3000 -29.2615 -29.2291 -29.2008 -29.1649 -29.1484 -29.1218
   -29.1041 -29.0463 -11.3569  -7.8028  -4.0727  -2.0931  -1.6994   0.3907
     2.2774   2.9279   4.6940   4.8199

     occupation numbers 
     1.0000   1.0000   1.0000   1.0000   1.0000   1.0000   1.0000   1.0000
     1.0000   1.0000   1.0000   1.0000   1.0000   1.0000   1.0000   0.0000
     0.0000   0.0000   0.0000   0.0000

          k = 0.0000 0.4621 0.0000 ( 16974 PWs)   bands (ev):

   -29.3501 -29.2858 -29.2536 -29.2158 -29.1923 -29.1761 -29.1568 -29.1400
   -29.1087 -29.0469 -10.8982  -8.2968  -4.0836  -2.2864  -2.0786   0.5660
     1.8759   2.9051   4.4690   5.3600

     occupation numbers 
     1.0000   1.0000   1.0000   1.0000   1.0000   1.0000   1.0000   1.0000
     1.0000   1.0000   1.0000   1.0000   1.0000   1.0000   1.0000   0.0000
     0.0000   0.0000   0.0000   0.0000

          k = 0.0000 0.5391 0.0000 ( 16956 PWs)   bands (ev):

   -29.3492 -29.2803 -29.2413 -29.2022 -29.1897 -29.1885 -29.1623 -29.1539
   -29.1101 -29.0473 -10.5248  -8.7186  -3.9784  -2.3854  -2.3776   0.7848
     1.5902   2.8824   4.2469   5.9972

     occupation numbers 
     1.0000   1.0000   1.0000   1.0000   1.0000   1.0000   1.0000   1.0000
     1.0000   1.0000   1.0000   1.0000   1.0000   1.0000   1.0000   0.0000
     0.0000   0.0000   0.0000   0.0000

          k = 0.0667 0.1155 0.0000 ( 17017 PWs)   bands (ev):

   -29.3582 -29.3511 -29.2660 -29.2619 -29.2236 -29.1408 -29.1377 -29.1021
   -29.0531 -29.0437 -12.4270  -7.2786  -1.9291  -1.5160  -1.0883   1.7713
     1.7942   2.6298   3.9258   3.9909

     occupation numbers 
     1.0000   1.0000   1.0000   1.0000   1.0000   1.0000   1.0000   1.0000
     1.0000   1.0000   1.0000   1.0000   1.0000   1.0000   1.0000   0.0000
     0.0000   0.0000   0.0000   0.0000

          k = 0.0667 0.1925 0.0000 ( 16948 PWs)   bands (ev):

   -29.3567 -29.3404 -29.2648 -29.2558 -29.2194 -29.1457 -29.1385 -29.1047
   -29.0656 -29.0444 -12.2235  -7.2803  -2.7550  -1.5372  -1.4219   1.3188
     2.2370   2.9872   4.1055   4.2248

     occupation numbers 
     1.0000   1.0000   1.0000   1.0000   1.0000   1.0000   1.0000   1.0000
     1.0000   1.0000   1.0000   1.0000   1.0000   1.0000   1.0000   0.0000
     0.0000   0.0000   0.0000   0.0000

          k = 0.0667 0.2695 0.0000 ( 16946 PWs)   bands (ev):

   -29.3547 -29.3252 -29.2637 -29.2472 -29.2126 -29.1528 -29.1403 -29.1085
   -29.0827 -29.0452 -11.9241  -7.3651  -3.4763  -1.9510  -1.3874   0.8816
     2.5498   2.9882   4.2448   4.5401

     occupation numbers 
     1.0000   1.0000   1.0000   1.0000   1.0000   1.0000   1.0000   1.0000
     1.0000   1.0000   1.0000   1.0000   1.0000   1.0000   1.0000   0.0000
     0.0000   0.0000   0.0000   0.0000

          k = 0.0667 0.3465 0.0000 ( 16963 PWs)   bands (ev):

   -29.3526 -29.3071 -29.2620 -29.2364 -29.2038 -29.1620 -29.1439 -29.1156
   -29.1001 -29.0462 -11.5390  -7.6196  -3.9309  -2.2961  -1.4961   0.6487
     2.6144   2.6813   4.5707   4.8248

     occupation numbers 
     1.0000   1.0000   1.0000   1.0000   1.0000   1.0000   1.0000   1.0000
     1.0000   1.0000   1.0000   1.0000   1.0000   1.0000   1.0000   0.0000
     0.0000   0.0000   0.0000   0.0000

          k = 0.0667 0.4236 0.0000 ( 16975 PWs)   bands (ev):

   -29.3508 -29.2897 -29.2574 -29.2242 -29.1942 -29.1728 -29.1504 -29.1321
   -29.1083 -29.0471 -11.0916  -8.0587  -4.0745  -2.5339  -1.8041   0.6985
     2.1659   2.7067   4.7019   5.1243

     occupation numbers 
     1.0000   1.0000   1.0000   1.0000   1.0000   1.0000   1.0000   1.0000
     1.0000   1.0000   1.0000   1.0000   1.0000   1.0000   1.0000   0.0000
     0.0000   0.0000   0.0000   0.0000

          k = 0.0667 0.5006 0.0000 ( 16992 PWs)   bands (ev):

   -29.3495 -29.2798 -29.2461 -29.2113 -29.1892 -29.1831 -29.1590 -29.1486
   -29.1109 -29.0477 -10.6486  -8.5506  -4.0216  -2.6336  -2.1861   0.9374
     1.7541   2.7189   4.4164   5.7398

     occupation numbers 
     1.0000   1.0000   1.0000   1.0000   1.0000   1.0000   1.0000   1.0000
     1.0000   1.0000   1.0000   1.0000   1.0000   1.0000   1.0000   0.0000
     0.0000   0.0000   0.0000   0.0000

          k = 0.0667 0.5776 0.0000 ( 16980 PWs)   bands (ev):

   -29.3491 -29.2775 -29.2375 -29.1992 -29.1990 -29.1853 -29.1595 -29.1580
   -29.1116 -29.0479 -10.4221  -8.8033  -3.9669  -2.6038  -2.4151   1.1527
     1.4968   2.7269   4.2807   6.4506

     occupation numbers 
     1.0000   1.0000   1.0000   1.0000   1.0000   1.0000   1.0000   1.0000
     1.0000   1.0000   1.0000   1.0000   1.0000   1.0000   1.0000   0.0000
     0.0000   0.0000   0.0000   0.0000

          k = 0.1334 0.2310 0.0000 ( 16939 PWs)   bands (ev):

   -29.3551 -29.3275 -29.2627 -29.2503 -29.2133 -29.1523 -29.1390 -29.1079
   -29.0800 -29.0453 -11.9731  -7.3396  -3.2906  -2.1463  -1.3753   1.4183
     2.0971   3.1516   4.3569   4.3783

     occupation numbers 
     1.0000   1.0000   1.0000   1.0000   1.0000   1.0000   1.0000   1.0000
     1.0000   1.0000   1.0000   1.0000   1.0000   1.0000   1.0000   0.0000
     0.0000   0.0000   0.0000   0.0000

          k = 0.1334 0.3080 0.0000 ( 16963 PWs)   bands (ev):

   -29.3532 -29.3107 -29.2603 -29.2428 -29.2046 -29.1614 -29.1405 -29.1133
   -29.0972 -29.0464 -11.6315  -7.5255  -3.7073  -2.6774  -1.4018   1.2164
     2.1673   3.0622   4.5448   4.7398

     occupation numbers 
     1.0000   1.0000   1.0000   1.0000   1.0000   1.0000   1.0000   1.0000
     1.0000   1.0000   1.0000   1.0000   1.0000   1.0000   1.0000   0.0000
     0.0000   0.0000   0.0000   0.0000

          k = 0.1334 0.3850 0.0000 ( 16991 PWs)   bands (ev):

   -29.3513 -29.2920 -29.2573 -29.2331 -29.1944 -29.1724 -29.1438 -29.1265
   -29.1091 -29.0476 -11.2130  -7.8850  -3.9337  -3.0156  -1.5985   1.0931
     2.1282   2.8279   4.8678   5.0785

     occupation numbers 
     1.0000   1.0000   1.0000   1.0000   1.0000   1.0000   1.0000   1.0000
     1.0000   1.0000   1.0000   1.0000   1.0000   1.0000   1.0000   0.0000
     0.0000   0.0000   0.0000   0.0000

          k = 0.1334 0.4621 0.0000 ( 16984 PWs)   bands (ev):

   -29.3499 -29.2770 -29.2498 -29.2217 -29.1875 -29.1823 -29.1514 -29.1439
   -29.1134 -29.0486 -10.7536  -8.3656  -4.0138  -3.1105  -1.9575   1.1523
     2.0080   2.6214   4.7751   5.5643

     occupation numbers 
     1.0000   1.0000   1.0000   1.0000   1.0000   1.0000   1.0000   1.0000
     1.0000   1.0000   1.0000   1.0000   1.0000   1.0000   1.0000   0.0000
     0.0000   0.0000   0.0000   0.0000

          k = 0.1334 0.5391 0.0000 ( 16984 PWs)   bands (ev):

   -29.3491 -29.2714 -29.2367 -29.2105 -29.1995 -29.1795 -29.1609 -29.1527
   -29.1150 -29.0491 -10.3702  -8.7833  -4.0433  -2.9913  -2.3250   1.2765
     1.8903   2.5180   4.5435   6.2325

     occupation numbers 
     1.0000   1.0000   1.0000   1.0000   1.0000   1.0000   1.0000   1.0000
     1.0000   1.0000   1.0000   1.0000   1.0000   1.0000   1.0000   0.0000
     0.0000   0.0000   0.0000   0.0000

          k = 0.2001 0.3465 0.0000 ( 16951 PWs)   bands (ev):

   -29.3515 -29.2928 -29.2561 -29.2375 -29.1943 -29.1724 -29.1410 -29.1245
   -29.1096 -29.0479 -11.2543  -7.8209  -3.7597  -3.3306  -1.5265   1.4714
     1.7101   3.2156   4.9013   5.0344

     occupation numbers 
     1.0000   1.0000   1.0000   1.0000   1.0000   1.0000   1.0000   1.0000
     1.0000   1.0000   1.0000   1.0000   1.0000   1.0000   1.0000   0.0000
     0.0000   0.0000   0.0000   0.0000

          k = 0.2001 0.4236 0.0000 ( 16988 PWs)   bands (ev):

   -29.3501 -29.2743 -29.2514 -29.2292 -29.1858 -29.1831 -29.1445 -29.1417
   -29.1160 -29.0493 -10.8124  -8.2434  -3.8982  -3.5382  -1.7979   1.2712
     1.7806   3.1624   5.1946   5.5020

     occupation numbers 
     1.0000   1.0000   1.0000   1.0000   1.0000   1.0000   1.0000   1.0000
     1.0000   1.0000   1.0000   1.0000   1.0000   1.0000   1.0000   0.0000
     0.0000   0.0000   0.0000   0.0000

          k = 0.2001 0.5006 0.0000 ( 16976 PWs)   bands (ev):

   -29.3491 -29.2628 -29.2406 -29.2187 -29.2000 -29.1751 -29.1622 -29.1456
   -29.1196 -29.0503 -10.3596  -8.7098  -4.1760  -3.2765  -2.1683   1.0281
     2.1207   2.8952   5.0981   6.0910

     occupation numbers 
     1.0000   1.0000   1.0000   1.0000   1.0000   1.0000   1.0000   1.0000
     1.0000   1.0000   1.0000   1.0000   1.0000   1.0000   1.0000   0.0000
     0.0000   0.0000   0.0000   0.0000

          k = 0.2001 0.5776 0.0000 ( 16978 PWs)   bands (ev):

   -29.3487 -29.2604 -29.2289 -29.2142 -29.2087 -29.1777 -29.1655 -29.1479
   -29.1208 -29.0507 -10.1077  -8.9714  -4.2725  -3.0693  -2.4118   0.9472
     2.4790   2.5570   5.0046   6.3934

     occupation numbers 
     1.0000   1.0000   1.0000   1.0000   1.0000   1.0000   1.0000   1.0000
     1.0000   1.0000   1.0000   1.0000   1.0000   1.0000   1.0000   0.0000
     0.0000   0.0000   0.0000   0.0000

          k = 0.2668 0.4621 0.0000 ( 16999 PWs)   bands (ev):

   -29.3491 -29.2562 -29.2459 -29.2214 -29.2001 -29.1735 -29.1625 -29.1420
   -29.1223 -29.0509 -10.3607  -8.6707  -4.2458  -3.3701  -2.0902   0.9074
     2.0923   3.2253   5.8047   5.9531

     occupation numbers 
     1.0000   1.0000   1.0000   1.0000   1.0000   1.0000   1.0000   1.0000
     1.0000   1.0000   1.0000   1.0000   1.0000   1.0000   1.0000   0.0000
     0.0000   0.0000   0.0000   0.0000

          k = 0.2668 0.5391 0.0000 ( 16995 PWs)   bands (ev):

   -29.3486 -29.2476 -29.2341 -29.2163 -29.2096 -29.1801 -29.1669 -29.1413
   -29.1269 -29.0518  -9.9326  -9.0886  -4.4833  -3.0403  -2.4216   0.6639
     2.4968   2.9917   5.8583   6.0299

     occupation numbers 
     1.0000   1.0000   1.0000   1.0000   1.0000   1.0000   1.0000   1.0000
     1.0000   1.0000   1.0000   1.0000   1.0000   1.0000   1.0000   0.0000
     0.0000   0.0000   0.0000   0.0000

          k = 0.3335 0.5776 0.0000 ( 17013 PWs)   bands (ev):

   -29.3484 -29.2340 -29.2310 -29.2310 -29.1960 -29.1960 -29.1650 -29.1345
   -29.1345 -29.0523  -9.5006  -9.5006  -4.6092  -2.7205  -2.7205   0.5144
     2.8248   2.8248   5.8279   6.7895

     occupation numbers 
     1.0000   1.0000   1.0000   1.0000   1.0000   1.0000   1.0000   1.0000
     1.0000   1.0000   1.0000   1.0000   1.0000   1.0000   1.0000   0.0000
     0.0000   0.0000   0.0000   0.0000

     highest occupied, lowest unoccupied level (ev):    -0.6839    0.3907

!    total energy              =    -362.92033902 Ry
     estimated scf accuracy    <          3.8E-10 Ry

     The total energy is the sum of the following terms:
     one-electron contribution =    -802.20650364 Ry
     hartree contribution      =     405.30382948 Ry
     xc contribution           =     -89.50975428 Ry
     ewald contribution        =     123.49208942 Ry

     convergence has been achieved in   8 iterations

     Forces acting on atoms (cartesian axes, Ry/au):

     atom    1 type  1   force =     0.00000000    0.00000000    0.00003509
     atom    2 type  1   force =     0.00000000    0.00000000   -0.00003509
     The non-local contrib.  to forces
     atom    1 type  1   force =     0.00000000    0.00000000    0.59935112
     atom    2 type  1   force =     0.00000000    0.00000000   -0.59951879
     The ionic contribution  to forces
     atom    1 type  1   force =    -0.00000001    0.00000001  -37.23118824
     atom    2 type  1   force =     0.00000001   -0.00000001   37.23118824
     The local contribution  to forces
     atom    1 type  1   force =    -0.00000000   -0.00000000   36.63976889
     atom    2 type  1   force =     0.00000043   -0.00000025  -36.63983276
     The core correction contribution to forces
     atom    1 type  1   force =     0.00000000    0.00000000   -0.00812297
     atom    2 type  1   force =     0.00000002   -0.00000001    0.00812203
     The Hubbard contrib.    to forces
     atom    1 type  1   force =     0.00000000    0.00000000    0.00000000
     atom    2 type  1   force =     0.00000000    0.00000000    0.00000000
     The SCF correction term to forces
     atom    1 type  1   force =     0.00000000   -0.00000000    0.00000000
     atom    2 type  1   force =    -0.00000000    0.00000000   -0.00009098

     Total force =     0.000035     Total SCF correction =     0.000091
     SCF correction compared to forces is large: reduce conv_thr to get better values


     Computing stress (Cartesian axis) and pressure

          total   stress  (Ry/bohr**3)                   (kbar)     P=       -0.08
   0.00000009  -0.00000000   0.00000000            0.01       -0.00        0.00
  -0.00000000   0.00000009   0.00000000           -0.00        0.01        0.00
   0.00000000   0.00000000  -0.00000186            0.00        0.00       -0.27

     kinetic stress (kbar)  14797.58     -0.00      0.00
                               -0.00  14797.58      0.00
                                0.00      0.00  14828.21

     local   stress (kbar) -70177.34      0.00     -0.00
                                0.00 -70177.34      0.00
                               -0.00      0.00  65540.59

     nonloc. stress (kbar)  -6415.12      0.00      0.00
                                0.00  -6415.12      0.00
                                0.00      0.00  -6399.09

     hartree stress (kbar)  36022.59     -0.00      0.00
                               -0.00  36022.59     -0.00
                                0.00     -0.00 -29601.90

     exc-cor stress (kbar)   3580.45      0.00      0.00
                                0.00   3580.45      0.00
                                0.00      0.00   3580.45

     corecor stress (kbar)  -5498.76     -0.00      0.00
                               -0.00  -5498.76     -0.00
                                0.00     -0.00  -5499.33

     ewald   stress (kbar)  27690.63     -0.00      0.00
                               -0.00  27690.63     -0.00
                                0.00     -0.00 -42449.20

     hubbard stress (kbar)      0.00      0.00      0.00
                                0.00      0.00      0.00
                                0.00      0.00      0.00

     DFT-D   stress (kbar)      0.00      0.00      0.00
                                0.00      0.00      0.00
                                0.00      0.00      0.00

     XDM     stress (kbar)      0.00      0.00      0.00
                                0.00      0.00      0.00
                                0.00      0.00      0.00

     dft-nl  stress (kbar)      0.00      0.00      0.00
                                0.00      0.00      0.00
                                0.00      0.00      0.00

     TS-vdW  stress (kbar)      0.00      0.00      0.00
                                0.00      0.00      0.00
                                0.00      0.00      0.00



     Writing output data file ./tmp/Sb.save/

     init_run     :      2.87s CPU      2.96s WALL (       2 calls)
     electrons    :    569.00s CPU    599.51s WALL (      20 calls)
     update_pot   :     13.50s CPU     13.79s WALL (      18 calls)
     forces       :     11.57s CPU     12.40s WALL (      20 calls)
     stress       :     31.08s CPU     31.97s WALL (      20 calls)

     Called by init_run:
     wfcinit      :      1.75s CPU      1.83s WALL (       2 calls)
     wfcinit:atom :      0.03s CPU      0.03s WALL (      54 calls)
     wfcinit:wfcr :      1.67s CPU      1.75s WALL (      54 calls)
     potinit      :      0.35s CPU      0.36s WALL (       2 calls)
     hinit0       :      0.71s CPU      0.72s WALL (       2 calls)

     Called by electrons:
     c_bands      :    478.15s CPU    507.13s WALL (     190 calls)
     sum_band     :     89.19s CPU     90.48s WALL (     190 calls)
     v_of_rho     :      0.88s CPU      0.96s WALL (     197 calls)
     v_h          :      0.32s CPU      0.35s WALL (     197 calls)
     v_xc         :      0.68s CPU      0.74s WALL (     237 calls)
     mix_rho      :      0.66s CPU      0.76s WALL (     190 calls)

     Called by c_bands:
     init_us_2    :      6.55s CPU      7.30s WALL (   11394 calls)
     cegterg      :    462.59s CPU    490.87s WALL (    5130 calls)

     Called by sum_band:
     sum_band:wei :      0.00s CPU      0.00s WALL (     190 calls)
     sum_band:loo :     88.49s CPU     89.74s WALL (     190 calls)
     sum_band:buf :      0.67s CPU      0.68s WALL (    5130 calls)
     sum_band:ini :      2.99s CPU      3.42s WALL (    5130 calls)

     Called by *egterg:
     cdiaghg      :      4.45s CPU      5.36s WALL (   15668 calls)
     cegterg:over :     24.75s CPU     29.22s WALL (   11375 calls)
     cegterg:upda :     11.46s CPU     14.20s WALL (   11375 calls)
     cegterg:last :     15.16s CPU     17.73s WALL (    9199 calls)
     h_psi        :    393.40s CPU    407.76s WALL (   16559 calls)
     g_psi        :      0.90s CPU      0.91s WALL (   11375 calls)

     Called by h_psi:
     h_psi:calbec :     21.07s CPU     24.52s WALL (   16559 calls)
     vloc_psi     :    355.77s CPU    362.31s WALL (   16559 calls)
     add_vuspsi   :     15.12s CPU     18.87s WALL (   16559 calls)

     General routines
     calbec       :     25.07s CPU     29.29s WALL (   19259 calls)
     fft          :      1.04s CPU      1.09s WALL (     762 calls)
     ffts         :      0.21s CPU      0.22s WALL (     190 calls)
     fftw         :    411.82s CPU    418.79s WALL (  585160 calls)

     Parallel routines
     fft_scatt_xy :     34.84s CPU     35.72s WALL (  586112 calls)
     fft_scatt_yz :     43.27s CPU     45.24s WALL (  586112 calls)

     PWSCF        :  10m28.23s CPU  11m 1.03s WALL


   This run was terminated on:  15:18:36  29Apr2026            

=------------------------------------------------------------------------------=
   JOB DONE.
=------------------------------------------------------------------------------=
Note: The following floating-point exceptions are signalling: IEEE_INVALID_FLAG IEEE_DIVIDE_BY_ZERO IEEE_UNDERFLOW_FLAG
