No protocol specified

     Program PWSCF v.7.3.1 starts on 19May2025 at 13:15: 7 

     This program is part of the open-source Quantum ESPRESSO suite
     for quantum simulation of materials; please cite
         "P. Giannozzi et al., J. Phys.:Condens. Matter 21 395502 (2009);
         "P. Giannozzi et al., J. Phys.:Condens. Matter 29 465901 (2017);
         "P. Giannozzi et al., J. Chem. Phys. 152 154105 (2020);
          URL http://www.quantum-espresso.org", 
     in publications or presentations arising from this work. More details at
     http://www.quantum-espresso.org/quote

     Parallel version (MPI), running on     3 processors

     MPI processes distributed on     1 nodes
     25640 MiB available memory on the printing compute node when the environment starts

     Waiting for input...
     Reading input from standard input

     Current dimensions of program PWSCF are:
     Max number of different atomic species (ntypx) = 10
     Max number of k-points (npk) =  40000
     Max angular momentum in pseudopotentials (lmaxx) =  4
     file Al.pbe-n-kjpaw_psl.1.0.0.UPF: wavefunction(s)  3S 3P renormalized
     file O.pbe-n-kjpaw_psl.0.1.UPF: wavefunction(s)  2P renormalized
     Message from routine setup:
     using ibrav=0 with symmetry is DISCOURAGED, use correct ibrav instead

     K-points division:     npool     =       3
     Subspace diagonalization in iterative solution of the eigenvalue problem:
     a serial algorithm will be used


     G-vector sticks info
     --------------------
     sticks:   dense  smooth     PW     G-vecs:    dense   smooth      PW
     Sum        6665    3341    885              1092149   386353   53141

     Using Slab Decomposition



     bravais-lattice index     =            0
     lattice parameter (alat)  =       5.3944  a.u.
     unit-cell volume          =   11302.2493 (a.u.)^3
     number of atoms/cell      =           37
     number of atomic types    =            2
     number of electrons       =       114.00
     number of Kohn-Sham states=           68
     kinetic-energy cutoff     =      40.0000  Ry
     charge density cutoff     =     320.0000  Ry
     scf convergence threshold =      1.0E-07
     mixing beta               =       0.5000
     number of iterations used =            8  local-TF  mixing
     energy convergence thresh.=      1.0E-04
     force convergence thresh. =      1.0E-03
     Exchange-correlation= SLA  PW   PBX  PBC
                           (   1   4   3   4   0   0   0)
     nstep                     =           50


     celldm(1)=   5.394412  celldm(2)=   0.000000  celldm(3)=   0.000000
     celldm(4)=   0.000000  celldm(5)=   0.000000  celldm(6)=   0.000000

     crystal axes: (cart. coord. in units of alat)
               a(1) = (   3.000000   0.000000   0.000000 )  
               a(2) = (   0.000000   3.000000   0.000000 )  
               a(3) = (   0.000000   0.000000   8.000000 )  

     reciprocal axes: (cart. coord. in units 2 pi/alat)
               b(1) = (  0.333333  0.000000  0.000000 )  
               b(2) = (  0.000000  0.333333  0.000000 )  
               b(3) = (  0.000000  0.000000  0.125000 )  


     PseudoPot. # 1 for Al read from file:
     ../../Pseudo/Al.pbe-n-kjpaw_psl.1.0.0.UPF
     MD5 check sum: dd5adf945272da8132fc805c9e56c2d6
     Pseudo is Projector augmented-wave + core cor, Zval =  3.0
     Generated using "atomic" code by A. Dal Corso  v.5.1
     Shape of augmentation charge: PSQ
     Using radial grid of 1135 points,  6 beta functions with: 
                l(1) =   0
                l(2) =   0
                l(3) =   1
                l(4) =   1
                l(5) =   2
                l(6) =   2
     Q(r) pseudized with 0 coefficients 


     PseudoPot. # 2 for O  read from file:
     ../../Pseudo/O.pbe-n-kjpaw_psl.0.1.UPF
     MD5 check sum: 0234752ac141de4415c5fc33072bef88
     Pseudo is Projector augmented-wave + core cor, Zval =  6.0
     Generated using "atomic" code by A. Dal Corso  v.5.0.99 svn rev. 10869
     Shape of augmentation charge: BESSEL
     Using radial grid of 1095 points,  4 beta functions with: 
                l(1) =   0
                l(2) =   0
                l(3) =   1
                l(4) =   1
     Q(r) pseudized with 0 coefficients 


     atomic species   valence    mass     pseudopotential
     Al                3.00     1.00000     Al( 1.00)
     O                 6.00     1.00000     O ( 1.00)

      8 Sym. Ops. (no inversion) found



   Cartesian axes

     site n.     atom                  positions (alat units)
         1        Al     tau(   1) = (   0.0000000   0.0000000   0.0000000  )
         2        Al     tau(   2) = (   0.0000000   1.0000000   0.0000000  )
         3        Al     tau(   3) = (   0.0000000   2.0000000   0.0000000  )
         4        Al     tau(   4) = (   1.0000000   0.0000000   0.0000000  )
         5        Al     tau(   5) = (   1.0000000   1.0000000   0.0000000  )
         6        Al     tau(   6) = (   1.0000000   2.0000000   0.0000000  )
         7        Al     tau(   7) = (   2.0000000   0.0000000   0.0000000  )
         8        Al     tau(   8) = (   2.0000000   1.0000000   0.0000000  )
         9        Al     tau(   9) = (   2.0000000   2.0000000   0.0000000  )
        10        Al     tau(  10) = (   0.5000000   0.5000000   0.7071068  )
        11        Al     tau(  11) = (   0.5000000   1.5000000   0.7071068  )
        12        Al     tau(  12) = (   0.5000000   2.5000000   0.7071068  )
        13        Al     tau(  13) = (   1.5000000   0.5000000   0.7071068  )
        14        Al     tau(  14) = (   1.5000000   1.5000000   0.7071068  )
        15        Al     tau(  15) = (   1.5000000   2.5000000   0.7071068  )
        16        Al     tau(  16) = (   2.5000000   0.5000000   0.7071068  )
        17        Al     tau(  17) = (   2.5000000   1.5000000   0.7071068  )
        18        Al     tau(  18) = (   2.5000000   2.5000000   0.7071068  )
        19        Al     tau(  19) = (   0.0000000   0.0000000   1.4298894  )
        20        Al     tau(  20) = (   0.0000000   1.0004974   1.4302354  )
        21        Al     tau(  21) = (   0.0000000   1.9995025   1.4302354  )
        22        Al     tau(  22) = (   1.0004974   0.0000000   1.4302354  )
        23        Al     tau(  23) = (   0.9917900   0.9917900   1.4244906  )
        24        Al     tau(  24) = (   0.9917900   2.0082100   1.4244906  )
        25        Al     tau(  25) = (   1.9995025   0.0000000   1.4302354  )
        26        Al     tau(  26) = (   2.0082100   0.9917900   1.4244906  )
        27        Al     tau(  27) = (   2.0082100   2.0082100   1.4244906  )
        28        Al     tau(  28) = (   0.5014778   0.5014778   2.1564208  )
        29        Al     tau(  29) = (   0.4969170   1.5000000   2.1715206  )
        30        Al     tau(  30) = (   0.5014778   2.4985221   2.1564208  )
        31        Al     tau(  31) = (   1.5000000   0.4969170   2.1715206  )
        32        Al     tau(  32) = (   1.5000000   1.5000000   2.0557244  )
        33        Al     tau(  33) = (   1.5000000   2.5030830   2.1715206  )
        34        Al     tau(  34) = (   2.4985221   0.5014778   2.1564208  )
        35        Al     tau(  35) = (   2.5030830   1.5000000   2.1715206  )
        36        Al     tau(  36) = (   2.4985221   2.4985221   2.1564208  )
        37        O      tau(  37) = (   1.5000000   1.5000000   2.6436310  )

     number of k points=     3  Marzari-Vanderbilt smearing, width (Ry)=  0.0500
                       cart. coord. in units 2pi/alat
        k(    1) = (   0.0416667   0.0416667   0.0000000), wk =   0.5000000
        k(    2) = (   0.0416667   0.1250000   0.0000000), wk =   1.0000000
        k(    3) = (   0.1250000   0.1250000   0.0000000), wk =   0.5000000

     Dense  grid:  1092149 G-vectors     FFT dimensions: (  96,  96, 250)

     Smooth grid:   386353 G-vectors     FFT dimensions: (  72,  72, 180)

     Estimated max dynamical RAM per process >       2.74 GB

     Estimated total dynamical RAM >       7.70 GB

     Initial potential from superposition of free atoms

     starting charge     113.9176, renormalised to     114.0000

     negative rho (up, down):  5.532E-04 0.000E+00
     Starting wfcs are  148 randomized atomic wfcs
     Checking if some PAW data can be deallocated... 

     total cpu time spent up to now is       15.8 secs

     Self-consistent Calculation

     iteration #  1     ecut=    40.00 Ry     beta= 0.50
     Davidson diagonalization with overlap
     ethr =  1.00E-02,  avg # of iterations =  4.0

     negative rho (up, down):  9.238E-08 0.000E+00

     total cpu time spent up to now is       42.1 secs

     total energy              =   -1463.00499041 Ry
     estimated scf accuracy    <       2.44749758 Ry

     iteration #  2     ecut=    40.00 Ry     beta= 0.50
     Davidson diagonalization with overlap
     ethr =  2.15E-03,  avg # of iterations =  3.3

     total cpu time spent up to now is       65.7 secs

     total energy              =   -1463.00299279 Ry
     estimated scf accuracy    <       1.13047602 Ry

     iteration #  3     ecut=    40.00 Ry     beta= 0.50
     Davidson diagonalization with overlap
     ethr =  9.92E-04,  avg # of iterations =  2.0

     total cpu time spent up to now is       88.7 secs

     total energy              =   -1463.03467427 Ry
     estimated scf accuracy    <       0.38114957 Ry

     iteration #  4     ecut=    40.00 Ry     beta= 0.50
     Davidson diagonalization with overlap
     ethr =  3.34E-04,  avg # of iterations =  3.0

     total cpu time spent up to now is      111.9 secs

     total energy              =   -1463.05969796 Ry
     estimated scf accuracy    <       0.29709956 Ry

     iteration #  5     ecut=    40.00 Ry     beta= 0.50
     Davidson diagonalization with overlap
     ethr =  2.61E-04,  avg # of iterations =  2.0

     total cpu time spent up to now is      133.9 secs

     total energy              =   -1463.07763475 Ry
     estimated scf accuracy    <       0.06003423 Ry

     iteration #  6     ecut=    40.00 Ry     beta= 0.50
     Davidson diagonalization with overlap
     ethr =  5.27E-05,  avg # of iterations = 11.0

     total cpu time spent up to now is      162.9 secs

     total energy              =   -1463.07693520 Ry
     estimated scf accuracy    <       0.15832667 Ry

     iteration #  7     ecut=    40.00 Ry     beta= 0.50
     Davidson diagonalization with overlap
     ethr =  5.27E-05,  avg # of iterations =  2.3

     total cpu time spent up to now is      184.6 secs

     total energy              =   -1463.08693999 Ry
     estimated scf accuracy    <       0.03025065 Ry

     iteration #  8     ecut=    40.00 Ry     beta= 0.50
     Davidson diagonalization with overlap
     ethr =  2.65E-05,  avg # of iterations =  2.0

     total cpu time spent up to now is      208.2 secs

     total energy              =   -1463.08826205 Ry
     estimated scf accuracy    <       0.01250172 Ry

     iteration #  9     ecut=    40.00 Ry     beta= 0.50
     Davidson diagonalization with overlap
     ethr =  1.10E-05,  avg # of iterations =  9.3

     negative rho (up, down):  3.554E-02 0.000E+00

     total cpu time spent up to now is      236.2 secs

     total energy              =   -1463.08768801 Ry
     estimated scf accuracy    <       0.00588284 Ry

     iteration # 10     ecut=    40.00 Ry     beta= 0.50
     Davidson diagonalization with overlap
     ethr =  5.16E-06,  avg # of iterations =  7.0

     negative rho (up, down):  1.178E-02 0.000E+00

     total cpu time spent up to now is      265.2 secs

     total energy              =   -1463.08809242 Ry
     estimated scf accuracy    <       0.00392808 Ry

     iteration # 11     ecut=    40.00 Ry     beta= 0.50
     Davidson diagonalization with overlap
     ethr =  3.45E-06,  avg # of iterations =  7.7

     negative rho (up, down):  4.180E-03 0.000E+00

     total cpu time spent up to now is      292.1 secs

     total energy              =   -1463.08843080 Ry
     estimated scf accuracy    <       0.00112067 Ry

     iteration # 12     ecut=    40.00 Ry     beta= 0.50
     Davidson diagonalization with overlap
     ethr =  9.83E-07,  avg # of iterations =  6.7

     negative rho (up, down):  3.111E-03 0.000E+00

     total cpu time spent up to now is      321.2 secs

     total energy              =   -1463.08864617 Ry
     estimated scf accuracy    <       0.00146296 Ry

     iteration # 13     ecut=    40.00 Ry     beta= 0.50
     Davidson diagonalization with overlap
     ethr =  9.83E-07,  avg # of iterations =  2.0

     negative rho (up, down):  1.281E-03 0.000E+00

     total cpu time spent up to now is      344.8 secs

     total energy              =   -1463.08868951 Ry
     estimated scf accuracy    <       0.00036074 Ry

     iteration # 14     ecut=    40.00 Ry     beta= 0.50
     Davidson diagonalization with overlap
     ethr =  3.16E-07,  avg # of iterations =  5.0

     negative rho (up, down):  1.229E-03 0.000E+00

     total cpu time spent up to now is      373.1 secs

     total energy              =   -1463.08877395 Ry
     estimated scf accuracy    <       0.00009441 Ry

     iteration # 15     ecut=    40.00 Ry     beta= 0.50
     Davidson diagonalization with overlap
     ethr =  8.28E-08,  avg # of iterations =  2.0

     negative rho (up, down):  9.868E-04 0.000E+00

     total cpu time spent up to now is      396.7 secs

     total energy              =   -1463.08876481 Ry
     estimated scf accuracy    <       0.00006357 Ry

     iteration # 16     ecut=    40.00 Ry     beta= 0.50
     Davidson diagonalization with overlap
     ethr =  5.58E-08,  avg # of iterations =  3.0

     negative rho (up, down):  6.360E-04 0.000E+00

     total cpu time spent up to now is      421.0 secs

     total energy              =   -1463.08876743 Ry
     estimated scf accuracy    <       0.00000385 Ry

     iteration # 17     ecut=    40.00 Ry     beta= 0.50
     Davidson diagonalization with overlap
     ethr =  3.38E-09,  avg # of iterations = 12.3

     negative rho (up, down):  5.547E-04 0.000E+00

     total cpu time spent up to now is      457.4 secs

     total energy              =   -1463.08876982 Ry
     estimated scf accuracy    <       0.00001607 Ry

     iteration # 18     ecut=    40.00 Ry     beta= 0.50
     Davidson diagonalization with overlap
     ethr =  3.38E-09,  avg # of iterations =  1.7

     negative rho (up, down):  5.555E-04 0.000E+00

     total cpu time spent up to now is      481.2 secs

     total energy              =   -1463.08876857 Ry
     estimated scf accuracy    <       0.00000803 Ry

     iteration # 19     ecut=    40.00 Ry     beta= 0.50
     Davidson diagonalization with overlap
     ethr =  3.38E-09,  avg # of iterations =  6.0

     negative rho (up, down):  5.750E-04 0.000E+00

     total cpu time spent up to now is      509.6 secs

     total energy              =   -1463.08876968 Ry
     estimated scf accuracy    <       0.00000012 Ry

     iteration # 20     ecut=    40.00 Ry     beta= 0.50
     Davidson diagonalization with overlap
     ethr =  1.06E-10,  avg # of iterations =  8.3

     negative rho (up, down):  5.717E-04 0.000E+00

     total cpu time spent up to now is      543.9 secs

     total energy              =   -1463.08876971 Ry
     estimated scf accuracy    <       0.00000033 Ry

     iteration # 21     ecut=    40.00 Ry     beta= 0.50
     Davidson diagonalization with overlap
     ethr =  1.06E-10,  avg # of iterations =  2.0

     negative rho (up, down):  5.472E-04 0.000E+00

     total cpu time spent up to now is      565.2 secs

     End of self-consistent calculation

          k = 0.0417 0.0417 0.0000 ( 48283 PWs)   bands (ev):

   -16.7931 -10.6322  -9.2556  -9.1359  -9.1305  -8.1467  -8.1379  -7.7813
    -7.7738  -7.6501  -7.1155  -6.7970  -6.7962  -6.6810  -6.6596  -6.3132
    -5.7087  -5.7020  -5.6185  -5.3492  -5.3471  -4.7370  -4.6847  -4.4061
    -4.3225  -4.1856  -3.7804  -3.7544  -3.3458  -3.3065  -2.9764  -2.9555
    -2.5931  -2.5756  -2.4945  -2.4141  -2.4122  -2.2075  -2.1049  -2.0264
    -1.9884  -1.9691  -1.8812  -1.8443  -1.6571  -1.3364  -1.2776  -1.1226
    -1.0556  -0.9814  -0.7771  -0.6852  -0.6744  -0.5990  -0.5084  -0.4243
    -0.4069  -0.3749  -0.0575   0.0098   0.1964   0.3460   0.3756   0.4012
     0.6746   0.7353   0.7883   0.8010

          k = 0.0417 0.1250 0.0000 ( 48328 PWs)   bands (ev):

   -16.7931 -10.3814  -9.8809  -9.0084  -8.8849  -8.5140  -8.3896  -7.8956
    -7.5330  -7.4040  -7.0480  -6.9140  -6.8697  -6.5578  -6.3767  -6.0694
    -5.6062  -5.4597  -5.4304  -5.4193  -4.9469  -4.5127  -4.4714  -4.1925
    -4.1533  -4.0837  -4.0039  -3.9757  -3.6146  -3.5320  -3.5219  -3.2611
    -3.1141  -3.0760  -2.8414  -2.7421  -2.4761  -2.3457  -2.3078  -2.2098
    -2.0739  -1.9068  -1.8367  -1.7866  -1.6456  -1.6324  -1.4911  -1.4074
    -1.2598  -1.2381  -1.0492  -0.7985  -0.5948  -0.4942  -0.2342  -0.2159
    -0.0704   0.0270   0.0694   0.2228   0.2279   0.2737   0.4799   0.6264
     0.7441   0.9396   1.2267   1.3714

          k = 0.1250 0.1250 0.0000 ( 48243 PWs)   bands (ev):

   -16.7931 -10.1309  -9.6333  -9.6291  -9.1332  -8.7616  -8.2764  -8.2598
    -7.7769  -6.6778  -6.6627  -6.6333  -6.1976  -6.1961  -6.1714  -6.0860
    -5.6530  -5.3786  -5.3487  -5.1942  -5.1832  -4.8986  -4.8806  -4.7101
    -4.7076  -3.9235  -3.9049  -3.8467  -3.4810  -3.4548  -3.4110  -3.3988
    -3.3375  -3.2974  -3.2920  -2.9654  -2.8816  -2.8709  -2.4635  -2.2427
    -2.1968  -2.0613  -1.8190  -1.6939  -1.5997  -1.3989  -1.3978  -1.1954
    -1.1374  -1.0807  -0.9241  -0.8483  -0.4281  -0.3611  -0.2731  -0.1567
     0.0145   0.1918   0.2612   0.3422   0.3690   0.4132   0.5304   0.7814
     1.0219   1.0292   1.1498   1.2545

     the Fermi energy is    -0.0858 ev

!    total energy              =   -1463.08876973 Ry
     total all-electron energy =    -17633.075799 Ry
     estimated scf accuracy    <       0.00000002 Ry
     smearing contrib. (-TS)   =      -0.01620330 Ry
     internal energy E=F+TS    =   -1463.07256642 Ry

     The total energy is F=E-TS. E is the sum of the following terms:
     one-electron contribution =   -1642.05299800 Ry
     hartree contribution      =     849.63872969 Ry
     xc contribution           =     -98.56365897 Ry
     ewald contribution        =     685.86547133 Ry
     one-center paw contrib.   =   -1257.96011047 Ry

     convergence has been achieved in  21 iterations

     negative rho (up, down):  5.472E-04 0.000E+00

     Forces acting on atoms (cartesian axes, Ry/au):

     atom    1 type  1   force =     0.00000000    0.00000000   -0.00617181
     atom    2 type  1   force =     0.00000000    0.00054290   -0.00694646
     atom    3 type  1   force =     0.00000000   -0.00054290   -0.00694646
     atom    4 type  1   force =     0.00054290    0.00000000   -0.00694646
     atom    5 type  1   force =    -0.00006552   -0.00006552   -0.00511114
     atom    6 type  1   force =    -0.00006552    0.00006552   -0.00511114
     atom    7 type  1   force =    -0.00054290    0.00000000   -0.00694646
     atom    8 type  1   force =     0.00006552   -0.00006552   -0.00511114
     atom    9 type  1   force =     0.00006552    0.00006552   -0.00511114
     atom   10 type  1   force =    -0.00146656   -0.00146656    0.00256297
     atom   11 type  1   force =     0.00016282    0.00000000    0.00320595
     atom   12 type  1   force =    -0.00146656    0.00146656    0.00256297
     atom   13 type  1   force =     0.00000000    0.00016282    0.00320595
     atom   14 type  1   force =     0.00000000    0.00000000    0.00463948
     atom   15 type  1   force =     0.00000000   -0.00016282    0.00320595
     atom   16 type  1   force =     0.00146656   -0.00146656    0.00256297
     atom   17 type  1   force =    -0.00016282    0.00000000    0.00320595
     atom   18 type  1   force =     0.00146656    0.00146656    0.00256297
     atom   19 type  1   force =     0.00000000    0.00000000    0.00200589
     atom   20 type  1   force =     0.00000000    0.00028745    0.00173657
     atom   21 type  1   force =     0.00000000   -0.00028745    0.00173657
     atom   22 type  1   force =     0.00028745    0.00000000    0.00173657
     atom   23 type  1   force =    -0.00007021   -0.00007021    0.00132628
     atom   24 type  1   force =    -0.00007021    0.00007021    0.00132628
     atom   25 type  1   force =    -0.00028745    0.00000000    0.00173657
     atom   26 type  1   force =     0.00007021   -0.00007021    0.00132628
     atom   27 type  1   force =     0.00007021    0.00007021    0.00132628
     atom   28 type  1   force =     0.00027981    0.00027981    0.00137578
     atom   29 type  1   force =    -0.00020348    0.00000000    0.00156840
     atom   30 type  1   force =     0.00027981   -0.00027981    0.00137578
     atom   31 type  1   force =     0.00000000   -0.00020348    0.00156840
     atom   32 type  1   force =     0.00000000    0.00000000    0.00148316
     atom   33 type  1   force =     0.00000000    0.00020348    0.00156840
     atom   34 type  1   force =    -0.00027981    0.00027981    0.00137578
     atom   35 type  1   force =     0.00020348    0.00000000    0.00156840
     atom   36 type  1   force =    -0.00027981   -0.00027981    0.00137578
     atom   37 type  2   force =     0.00000000    0.00000000   -0.00083010

     Total force =     0.006677     Total SCF correction =     0.000089

     BFGS Geometry Optimization
     Energy error            =      0.0E+00 Ry
     Gradient error          =      2.0E-03 Ry/Bohr

     number of scf cycles    =   1
     number of bfgs steps    =   0

     energy             new  =   -1463.0887697259 Ry

     new trust radius        =       0.0020058906 bohr
     new conv_thr            =       0.0000001000 Ry


ATOMIC_POSITIONS (alat)
Al               0.0000000000        0.0000000000        0.0000000000    0   0   0
Al               0.0000000000        0.9999999955        0.0000000000    0   0   0
Al               0.0000000000        1.9999999913        0.0000000000    0   0   0
Al               0.9999999955        0.0000000000        0.0000000000    0   0   0
Al               0.9999999955        0.9999999955        0.0000000000    0   0   0
Al               0.9999999955        1.9999999913        0.0000000000    0   0   0
Al               1.9999999913        0.0000000000        0.0000000000    0   0   0
Al               1.9999999913        0.9999999955        0.0000000000    0   0   0
Al               1.9999999913        1.9999999913        0.0000000000    0   0   0
Al               0.4999999978        0.4999999978        0.7071067659    0   0   0
Al               0.4999999978        1.4999999935        0.7071067659    0   0   0
Al               0.4999999978        2.4999999890        0.7071067659    0   0   0
Al               1.4999999935        0.4999999978        0.7071067659    0   0   0
Al               1.4999999935        1.4999999935        0.7071067659    0   0   0
Al               1.4999999935        2.4999999890        0.7071067659    0   0   0
Al               2.4999999890        0.4999999978        0.7071067659    0   0   0
Al               2.4999999890        1.4999999935        0.7071067659    0   0   0
Al               2.4999999890        2.4999999890        0.7071067659    0   0   0
Al               0.0000000000        0.0000000000        1.4302612556
Al               0.0000000000        1.0005507295        1.4305573388
Al               0.0000000000        1.9994492573        1.4305573388
Al               1.0005507295        0.0000000000        1.4305573388
Al               0.9917770118        0.9917770118        1.4247364843
Al               0.9917770118        2.0082229750        1.4247364843
Al               1.9994492573        0.0000000000        1.4305573388
Al               2.0082229750        0.9917770118        1.4247364843
Al               2.0082229750        2.0082229750        1.4247364843
Al               0.5015297118        0.5015297118        2.1566758351
Al               0.4968792704        1.4999999935        2.1718113520
Al               0.5015297118        2.4984702750        2.1566758351
Al               1.4999999935        0.4968792704        2.1718113520
Al               1.4999999935        1.4999999935        2.0559993165
Al               1.4999999935        2.5031207164        2.1718113520
Al               2.4984702750        0.5015297118        2.1566758351
Al               2.5031207164        1.4999999935        2.1718113520
Al               2.4984702750        2.4984702750        2.1566758351
O                1.4999999970        1.4999999970        2.6434770951    0   0   1



     Writing config-only to output data dir ./tmp/Al.save/ :
     XML data file
     NEW-OLD atomic charge density approx. for the potential

     negative rho (up, down):  5.468E-04 0.000E+00

     total cpu time spent up to now is      586.4 secs

     Self-consistent Calculation

     iteration #  1     ecut=    40.00 Ry     beta= 0.50
     Davidson diagonalization with overlap
     ethr =  1.00E-06,  avg # of iterations =  2.0

     Threshold (ethr) on eigenvalues was too large:
     Diagonalizing with lowered threshold

     Davidson diagonalization with overlap
     ethr =  2.27E-09,  avg # of iterations =  8.7

     negative rho (up, down):  5.386E-04 0.000E+00

     total cpu time spent up to now is      637.0 secs

     total energy              =   -1463.08881168 Ry
     estimated scf accuracy    <       0.00000504 Ry

     iteration #  2     ecut=    40.00 Ry     beta= 0.50
     Davidson diagonalization with overlap
     ethr =  4.42E-09,  avg # of iterations =  2.0

     negative rho (up, down):  5.319E-04 0.000E+00

     total cpu time spent up to now is      660.3 secs

     total energy              =   -1463.08881189 Ry
     estimated scf accuracy    <       0.00000107 Ry

     iteration #  3     ecut=    40.00 Ry     beta= 0.50
     Davidson diagonalization with overlap
     ethr =  9.38E-10,  avg # of iterations =  1.3

     negative rho (up, down):  5.229E-04 0.000E+00

     total cpu time spent up to now is      683.0 secs

     total energy              =   -1463.08881183 Ry
     estimated scf accuracy    <       0.00000041 Ry

     iteration #  4     ecut=    40.00 Ry     beta= 0.50
     Davidson diagonalization with overlap
     ethr =  3.59E-10,  avg # of iterations =  5.3

     negative rho (up, down):  5.475E-04 0.000E+00

     total cpu time spent up to now is      707.0 secs

     End of self-consistent calculation

          k = 0.0417 0.0417 0.0000 ( 48283 PWs)   bands (ev):

   -16.7974 -10.6311  -9.2559  -9.1346  -9.1295  -8.1455  -8.1368  -7.7817
    -7.7739  -7.6490  -7.1152  -6.7975  -6.7962  -6.6800  -6.6584  -6.3134
    -5.7086  -5.7009  -5.6181  -5.3494  -5.3474  -4.7369  -4.6843  -4.4064
    -4.3229  -4.1855  -3.7794  -3.7533  -3.3459  -3.3063  -2.9772  -2.9561
    -2.5939  -2.5762  -2.4949  -2.4132  -2.4112  -2.2076  -2.1058  -2.0270
    -1.9877  -1.9702  -1.8803  -1.8431  -1.6584  -1.3371  -1.2784  -1.1230
    -1.0545  -0.9816  -0.7774  -0.6855  -0.6748  -0.5980  -0.5088  -0.4246
    -0.4069  -0.3753  -0.0577   0.0096   0.1961   0.3459   0.3750   0.4018
     0.6746   0.7351   0.7889   0.8020

          k = 0.0417 0.1250 0.0000 ( 48328 PWs)   bands (ev):

   -16.7973 -10.3802  -9.8797  -9.0087  -8.8838  -8.5143  -8.3885  -7.8945
    -7.5332  -7.4029  -7.0482  -6.9129  -6.8693  -6.5581  -6.3764  -6.0697
    -5.6062  -5.4586  -5.4295  -5.4190  -4.9466  -4.5116  -4.4711  -4.1926
    -4.1537  -4.0841  -4.0031  -3.9755  -3.6151  -3.5310  -3.5218  -3.2612
    -3.1133  -3.0750  -2.8422  -2.7427  -2.4767  -2.3467  -2.3090  -2.2101
    -2.0742  -1.9072  -1.8371  -1.7871  -1.6447  -1.6329  -1.4917  -1.4082
    -1.2605  -1.2371  -1.0492  -0.7990  -0.5952  -0.4944  -0.2345  -0.2163
    -0.0703   0.0271   0.0700   0.2230   0.2287   0.2739   0.4797   0.6260
     0.7435   0.9392   1.2265   1.3716

          k = 0.1250 0.1250 0.0000 ( 48243 PWs)   bands (ev):

   -16.7973 -10.1298  -9.6321  -9.6281  -9.1321  -8.7618  -8.2768  -8.2598
    -7.7772  -6.6767  -6.6617  -6.6329  -6.1974  -6.1951  -6.1702  -6.0855
    -5.6528  -5.3784  -5.3489  -5.1934  -5.1823  -4.8986  -4.8806  -4.7093
    -4.7067  -3.9240  -3.9052  -3.8473  -3.4813  -3.4556  -3.4115  -3.3983
    -3.3372  -3.2973  -3.2920  -2.9660  -2.8817  -2.8709  -2.4625  -2.2433
    -2.1978  -2.0622  -1.8199  -1.6938  -1.6002  -1.3997  -1.3976  -1.1957
    -1.1375  -1.0797  -0.9249  -0.8487  -0.4289  -0.3614  -0.2733  -0.1562
     0.0144   0.1914   0.2611   0.3432   0.3697   0.4145   0.5302   0.7813
     1.0214   1.0291   1.1496   1.2537

     the Fermi energy is    -0.0858 ev

!    total energy              =   -1463.08881184 Ry
     total all-electron energy =    -17633.075841 Ry
     estimated scf accuracy    <       0.00000005 Ry
     smearing contrib. (-TS)   =      -0.01615433 Ry
     internal energy E=F+TS    =   -1463.07265751 Ry

     The total energy is F=E-TS. E is the sum of the following terms:
     one-electron contribution =   -1641.86733688 Ry
     hartree contribution      =     849.55031220 Ry
     xc contribution           =     -98.56306775 Ry
     ewald contribution        =     685.76741685 Ry
     one-center paw contrib.   =   -1257.95998192 Ry

     convergence has been achieved in   4 iterations

     negative rho (up, down):  5.475E-04 0.000E+00

     Forces acting on atoms (cartesian axes, Ry/au):

     atom    1 type  1   force =     0.00000000    0.00000000   -0.00615684
     atom    2 type  1   force =     0.00000000    0.00054477   -0.00693196
     atom    3 type  1   force =     0.00000000   -0.00054477   -0.00693196
     atom    4 type  1   force =     0.00054477    0.00000000   -0.00693196
     atom    5 type  1   force =    -0.00006605   -0.00006605   -0.00509538
     atom    6 type  1   force =    -0.00006605    0.00006605   -0.00509538
     atom    7 type  1   force =    -0.00054477    0.00000000   -0.00693196
     atom    8 type  1   force =     0.00006605   -0.00006605   -0.00509538
     atom    9 type  1   force =     0.00006605    0.00006605   -0.00509538
     atom   10 type  1   force =    -0.00147056   -0.00147056    0.00265401
     atom   11 type  1   force =     0.00015909    0.00000000    0.00328144
     atom   12 type  1   force =    -0.00147056    0.00147056    0.00265401
     atom   13 type  1   force =     0.00000000    0.00015909    0.00328144
     atom   14 type  1   force =     0.00000000    0.00000000    0.00471093
     atom   15 type  1   force =     0.00000000   -0.00015909    0.00328144
     atom   16 type  1   force =     0.00147056   -0.00147056    0.00265401
     atom   17 type  1   force =    -0.00015909    0.00000000    0.00328144
     atom   18 type  1   force =     0.00147056    0.00147056    0.00265401
     atom   19 type  1   force =     0.00000000    0.00000000    0.00190228
     atom   20 type  1   force =     0.00000000    0.00025481    0.00163252
     atom   21 type  1   force =     0.00000000   -0.00025481    0.00163252
     atom   22 type  1   force =     0.00025481    0.00000000    0.00163252
     atom   23 type  1   force =    -0.00006185   -0.00006185    0.00125726
     atom   24 type  1   force =    -0.00006185    0.00006185    0.00125726
     atom   25 type  1   force =    -0.00025481    0.00000000    0.00163252
     atom   26 type  1   force =     0.00006185   -0.00006185    0.00125726
     atom   27 type  1   force =     0.00006185    0.00006185    0.00125726
     atom   28 type  1   force =     0.00026466    0.00026466    0.00137599
     atom   29 type  1   force =    -0.00018610    0.00000000    0.00155074
     atom   30 type  1   force =     0.00026466   -0.00026466    0.00137599
     atom   31 type  1   force =     0.00000000   -0.00018610    0.00155074
     atom   32 type  1   force =     0.00000000    0.00000000    0.00012323
     atom   33 type  1   force =     0.00000000    0.00018610    0.00155074
     atom   34 type  1   force =    -0.00026466    0.00026466    0.00137599
     atom   35 type  1   force =     0.00018610    0.00000000    0.00155074
     atom   36 type  1   force =    -0.00026466   -0.00026466    0.00137599
     atom   37 type  2   force =     0.00000000    0.00000000    0.00052194

     Total force =     0.006251     Total SCF correction =     0.000261
     Energy error            =      4.2E-05 Ry
     Gradient error          =      1.9E-03 Ry/Bohr

     number of scf cycles    =   2
     number of bfgs steps    =   1

     energy             old  =   -1463.0887697259 Ry
     energy             new  =   -1463.0888118401 Ry

     CASE: energy            _new < energy            _old


     WARNING: bfgs curvature condition failed, Theta= 0.893
     new trust radius        =       0.0022064796 bohr
     new conv_thr            =       0.0000000010 Ry


ATOMIC_POSITIONS (alat)
Al               0.0000000000        0.0000000000        0.0000000000    0   0   0
Al               0.0000000000        0.9999999955        0.0000000000    0   0   0
Al               0.0000000000        1.9999999913        0.0000000000    0   0   0
Al               0.9999999955        0.0000000000        0.0000000000    0   0   0
Al               0.9999999955        0.9999999955        0.0000000000    0   0   0
Al               0.9999999955        1.9999999913        0.0000000000    0   0   0
Al               1.9999999913        0.0000000000        0.0000000000    0   0   0
Al               1.9999999913        0.9999999955        0.0000000000    0   0   0
Al               1.9999999913        1.9999999913        0.0000000000    0   0   0
Al               0.4999999978        0.4999999978        0.7071067659    0   0   0
Al               0.4999999978        1.4999999935        0.7071067659    0   0   0
Al               0.4999999978        2.4999999890        0.7071067659    0   0   0
Al               1.4999999935        0.4999999978        0.7071067659    0   0   0
Al               1.4999999935        1.4999999935        0.7071067659    0   0   0
Al               1.4999999935        2.4999999890        0.7071067659    0   0   0
Al               2.4999999890        0.4999999978        0.7071067659    0   0   0
Al               2.4999999890        1.4999999935        0.7071067659    0   0   0
Al               2.4999999890        2.4999999890        0.7071067659    0   0   0
Al               0.0000000000        0.0000000000        1.4306702862
Al               0.0000000000        1.0006068822        1.4309094642
Al               0.0000000000        1.9993931046        1.4309094642
Al               1.0006068822        0.0000000000        1.4309094642
Al               0.9917633498        0.9917633498        1.4250068615
Al               0.9917633498        2.0082366370        1.4250068615
Al               1.9993931046        0.0000000000        1.4309094642
Al               2.0082366370        0.9917633498        1.4250068615
Al               2.0082366370        2.0082366370        1.4250068615
Al               0.5015866725        0.5015866725        2.1569662430
Al               0.4968387289        1.4999999935        2.1721399416
Al               0.5015866725        2.4984133143        2.1569662430
Al               1.4999999935        0.4968387289        2.1721399416
Al               1.4999999935        1.4999999935        2.0561240997
Al               1.4999999935        2.5031612579        2.1721399416
Al               2.4984133143        0.5015866725        2.1569662430
Al               2.5031612579        1.4999999935        2.1721399416
Al               2.4984133143        2.4984133143        2.1569662430
O                1.4999999970        1.4999999970        2.6434890573    0   0   1



     Writing config-only to output data dir ./tmp/Al.save/ :
     XML data file
     NEW-OLD atomic charge density approx. for the potential

     negative rho (up, down):  5.468E-04 0.000E+00

     total cpu time spent up to now is      728.3 secs

     Self-consistent Calculation

     iteration #  1     ecut=    40.00 Ry     beta= 0.50
     Davidson diagonalization with overlap
     ethr =  1.00E-06,  avg # of iterations =  2.0

     Threshold (ethr) on eigenvalues was too large:
     Diagonalizing with lowered threshold

     Davidson diagonalization with overlap
     ethr =  2.69E-09,  avg # of iterations =  8.7

     negative rho (up, down):  5.473E-04 0.000E+00

     total cpu time spent up to now is      780.9 secs

     total energy              =   -1463.08885593 Ry
     estimated scf accuracy    <       0.00001729 Ry

     iteration #  2     ecut=    40.00 Ry     beta= 0.50
     Davidson diagonalization with overlap
     ethr =  1.52E-08,  avg # of iterations =  1.0

     negative rho (up, down):  5.524E-04 0.000E+00

     total cpu time spent up to now is      803.7 secs

     total energy              =   -1463.08885481 Ry
     estimated scf accuracy    <       0.00000787 Ry

     iteration #  3     ecut=    40.00 Ry     beta= 0.50
     Davidson diagonalization with overlap
     ethr =  6.91E-09,  avg # of iterations =  3.0

     negative rho (up, down):  5.533E-04 0.000E+00

     total cpu time spent up to now is      828.8 secs

     total energy              =   -1463.08885563 Ry
     estimated scf accuracy    <       0.00000060 Ry

     iteration #  4     ecut=    40.00 Ry     beta= 0.50
     Davidson diagonalization with overlap
     ethr =  5.30E-10,  avg # of iterations =  6.3

     negative rho (up, down):  5.526E-04 0.000E+00

     total cpu time spent up to now is      856.2 secs

     total energy              =   -1463.08885568 Ry
     estimated scf accuracy    <       0.00000029 Ry

     iteration #  5     ecut=    40.00 Ry     beta= 0.50
     Davidson diagonalization with overlap
     ethr =  2.53E-10,  avg # of iterations =  3.0

     negative rho (up, down):  5.516E-04 0.000E+00

     total cpu time spent up to now is      880.4 secs

     total energy              =   -1463.08885571 Ry
     estimated scf accuracy    <       0.00000001 Ry

     iteration #  6     ecut=    40.00 Ry     beta= 0.50
     Davidson diagonalization with overlap
     ethr =  9.30E-12,  avg # of iterations = 12.0

     negative rho (up, down):  5.517E-04 0.000E+00

     total cpu time spent up to now is      919.4 secs

     total energy              =   -1463.08885572 Ry
     estimated scf accuracy    <       0.00000007 Ry

     iteration #  7     ecut=    40.00 Ry     beta= 0.50
     Davidson diagonalization with overlap
     ethr =  9.30E-12,  avg # of iterations =  1.0

     negative rho (up, down):  5.520E-04 0.000E+00

     total cpu time spent up to now is      941.9 secs

     total energy              =   -1463.08885571 Ry
     estimated scf accuracy    <       0.00000007 Ry

     iteration #  8     ecut=    40.00 Ry     beta= 0.50
     Davidson diagonalization with overlap
     ethr =  9.30E-12,  avg # of iterations =  3.3

     negative rho (up, down):  5.511E-04 0.000E+00

     total cpu time spent up to now is      968.2 secs

     total energy              =   -1463.08885572 Ry
     estimated scf accuracy    <          1.9E-09 Ry

     iteration #  9     ecut=    40.00 Ry     beta= 0.50
     Davidson diagonalization with overlap
     ethr =  1.67E-12,  avg # of iterations =  9.3

     negative rho (up, down):  5.498E-04 0.000E+00

     total cpu time spent up to now is     1001.3 secs

     total energy              =   -1463.08885572 Ry
     estimated scf accuracy    <          3.1E-09 Ry

     iteration # 10     ecut=    40.00 Ry     beta= 0.50
     Davidson diagonalization with overlap
     ethr =  1.67E-12,  avg # of iterations =  2.3

     negative rho (up, down):  5.475E-04 0.000E+00

     total cpu time spent up to now is     1021.9 secs

     End of self-consistent calculation

          k = 0.0417 0.0417 0.0000 ( 48283 PWs)   bands (ev):

   -16.7982 -10.6292  -9.2555  -9.1326  -9.1277  -8.1434  -8.1350  -7.7816
    -7.7734  -7.6471  -7.1143  -6.7973  -6.7957  -6.6781  -6.6563  -6.3131
    -5.7078  -5.6989  -5.6169  -5.3490  -5.3472  -4.7361  -4.6832  -4.4061
    -4.3226  -4.1847  -3.7776  -3.7513  -3.3450  -3.3054  -2.9774  -2.9558
    -2.5936  -2.5759  -2.4946  -2.4115  -2.4093  -2.2070  -2.1057  -2.0268
    -1.9862  -1.9702  -1.8786  -1.8412  -1.6581  -1.3369  -1.2782  -1.1228
    -1.0525  -0.9812  -0.7772  -0.6853  -0.6746  -0.5961  -0.5087  -0.4243
    -0.4063  -0.3750  -0.0571   0.0102   0.1963   0.3463   0.3752   0.4032
     0.6753   0.7354   0.7902   0.8038

          k = 0.0417 0.1250 0.0000 ( 48328 PWs)   bands (ev):

   -16.7982 -10.3783  -9.8778  -9.0083  -8.8818  -8.5139  -8.3866  -7.8925
    -7.5329  -7.4010  -7.0479  -6.9111  -6.8682  -6.5578  -6.3754  -6.0693
    -5.6057  -5.4567  -5.4279  -5.4179  -4.9457  -4.5096  -4.4701  -4.1920
    -4.1534  -4.0839  -4.0015  -3.9746  -3.6149  -3.5292  -3.5209  -3.2606
    -3.1117  -3.0731  -2.8420  -2.7426  -2.4764  -2.3465  -2.3089  -2.2098
    -2.0737  -1.9068  -1.8368  -1.7870  -1.6430  -1.6325  -1.4914  -1.4079
    -1.2603  -1.2352  -1.0485  -0.7986  -0.5949  -0.4939  -0.2341  -0.2161
    -0.0696   0.0278   0.0715   0.2237   0.2303   0.2748   0.4800   0.6261
     0.7436   0.9395   1.2268   1.3724

          k = 0.1250 0.1250 0.0000 ( 48243 PWs)   bands (ev):

   -16.7982 -10.1278  -9.6300  -9.6263  -9.1302  -8.7615  -8.2766  -8.2593
    -7.7768  -6.6747  -6.6599  -6.6318  -6.1966  -6.1933  -6.1682  -6.0843
    -5.6518  -5.3776  -5.3485  -5.1919  -5.1805  -4.8980  -4.8800  -4.7076
    -4.7051  -3.9239  -3.9048  -3.8472  -3.4808  -3.4558  -3.4113  -3.3970
    -3.3361  -3.2965  -3.2914  -2.9658  -2.8808  -2.8700  -2.4606  -2.2429
    -2.1977  -2.0616  -1.8196  -1.6928  -1.5996  -1.3996  -1.3968  -1.1955
    -1.1369  -1.0779  -0.9249  -0.8484  -0.4290  -0.3609  -0.2729  -0.1548
     0.0150   0.1916   0.2617   0.3451   0.3710   0.4166   0.5308   0.7819
     1.0215   1.0297   1.1499   1.2535

     the Fermi energy is    -0.0852 ev

!    total energy              =   -1463.08885572 Ry
     total all-electron energy =    -17633.075885 Ry
     estimated scf accuracy    <          1.9E-11 Ry
     smearing contrib. (-TS)   =      -0.01607283 Ry
     internal energy E=F+TS    =   -1463.07278289 Ry

     The total energy is F=E-TS. E is the sum of the following terms:
     one-electron contribution =   -1641.61855081 Ry
     hartree contribution      =     849.42554919 Ry
     xc contribution           =     -98.56130090 Ry
     ewald contribution        =     685.64125624 Ry
     one-center paw contrib.   =   -1257.95973661 Ry

     convergence has been achieved in  10 iterations

     negative rho (up, down):  5.475E-04 0.000E+00

     Forces acting on atoms (cartesian axes, Ry/au):

     atom    1 type  1   force =     0.00000000    0.00000000   -0.00615227
     atom    2 type  1   force =     0.00000000    0.00054617   -0.00692852
     atom    3 type  1   force =     0.00000000   -0.00054617   -0.00692852
     atom    4 type  1   force =     0.00054617    0.00000000   -0.00692852
     atom    5 type  1   force =    -0.00006656   -0.00006656   -0.00509249
     atom    6 type  1   force =    -0.00006656    0.00006656   -0.00509249
     atom    7 type  1   force =    -0.00054617    0.00000000   -0.00692852
     atom    8 type  1   force =     0.00006656   -0.00006656   -0.00509249
     atom    9 type  1   force =     0.00006656    0.00006656   -0.00509249
     atom   10 type  1   force =    -0.00147608   -0.00147608    0.00275108
     atom   11 type  1   force =     0.00015587    0.00000000    0.00336052
     atom   12 type  1   force =    -0.00147608    0.00147608    0.00275108
     atom   13 type  1   force =     0.00000000    0.00015587    0.00336052
     atom   14 type  1   force =     0.00000000    0.00000000    0.00478185
     atom   15 type  1   force =     0.00000000   -0.00015587    0.00336052
     atom   16 type  1   force =     0.00147608   -0.00147608    0.00275108
     atom   17 type  1   force =    -0.00015587    0.00000000    0.00336052
     atom   18 type  1   force =     0.00147608    0.00147608    0.00275108
     atom   19 type  1   force =     0.00000000    0.00000000    0.00179723
     atom   20 type  1   force =     0.00000000    0.00021881    0.00152384
     atom   21 type  1   force =     0.00000000   -0.00021881    0.00152384
     atom   22 type  1   force =     0.00021881    0.00000000    0.00152384
     atom   23 type  1   force =    -0.00006835   -0.00006835    0.00116592
     atom   24 type  1   force =    -0.00006835    0.00006835    0.00116592
     atom   25 type  1   force =    -0.00021881    0.00000000    0.00152384
     atom   26 type  1   force =     0.00006835   -0.00006835    0.00116592
     atom   27 type  1   force =     0.00006835    0.00006835    0.00116592
     atom   28 type  1   force =     0.00024470    0.00024470    0.00137591
     atom   29 type  1   force =    -0.00015064    0.00000000    0.00154414
     atom   30 type  1   force =     0.00024470   -0.00024470    0.00137591
     atom   31 type  1   force =     0.00000000   -0.00015064    0.00154414
     atom   32 type  1   force =     0.00000000    0.00000000   -0.00023184
     atom   33 type  1   force =     0.00000000    0.00015064    0.00154414
     atom   34 type  1   force =    -0.00024470    0.00024470    0.00137591
     atom   35 type  1   force =     0.00015064    0.00000000    0.00154414
     atom   36 type  1   force =    -0.00024470   -0.00024470    0.00137591
     atom   37 type  2   force =     0.00000000    0.00000000    0.00100347

     Total force =     0.006077     Total SCF correction =     0.000006
     Energy error            =      4.4E-05 Ry
     Gradient error          =      1.8E-03 Ry/Bohr

     number of scf cycles    =   3
     number of bfgs steps    =   2

     energy             old  =   -1463.0888118401 Ry
     energy             new  =   -1463.0888557208 Ry

     CASE: energy            _new < energy            _old

     new trust radius        =       0.0033097194 bohr
     new conv_thr            =       0.0000000010 Ry


ATOMIC_POSITIONS (alat)
Al               0.0000000000        0.0000000000        0.0000000000    0   0   0
Al               0.0000000000        0.9999999955        0.0000000000    0   0   0
Al               0.0000000000        1.9999999913        0.0000000000    0   0   0
Al               0.9999999955        0.0000000000        0.0000000000    0   0   0
Al               0.9999999955        0.9999999955        0.0000000000    0   0   0
Al               0.9999999955        1.9999999913        0.0000000000    0   0   0
Al               1.9999999913        0.0000000000        0.0000000000    0   0   0
Al               1.9999999913        0.9999999955        0.0000000000    0   0   0
Al               1.9999999913        1.9999999913        0.0000000000    0   0   0
Al               0.4999999978        0.4999999978        0.7071067659    0   0   0
Al               0.4999999978        1.4999999935        0.7071067659    0   0   0
Al               0.4999999978        2.4999999890        0.7071067659    0   0   0
Al               1.4999999935        0.4999999978        0.7071067659    0   0   0
Al               1.4999999935        1.4999999935        0.7071067659    0   0   0
Al               1.4999999935        2.4999999890        0.7071067659    0   0   0
Al               2.4999999890        0.4999999978        0.7071067659    0   0   0
Al               2.4999999890        1.4999999935        0.7071067659    0   0   0
Al               2.4999999890        2.4999999890        0.7071067659    0   0   0
Al               0.0000000000        0.0000000000        1.4312838321
Al               0.0000000000        1.0006842190        1.4314318020
Al               0.0000000000        1.9993157678        1.4314318020
Al               1.0006842190        0.0000000000        1.4314318020
Al               0.9917391967        0.9917391967        1.4254048041
Al               0.9917391967        2.0082607901        1.4254048041
Al               1.9993157678        0.0000000000        1.4314318020
Al               2.0082607901        0.9917391967        1.4254048041
Al               2.0082607901        2.0082607901        1.4254048041
Al               0.5016702788        0.5016702788        2.1574252937
Al               0.4967864071        1.4999999935        2.1726576911
Al               0.5016702788        2.4983297080        2.1574252937
Al               1.4999999935        0.4967864071        2.1726576911
Al               1.4999999935        1.4999999935        2.0562445126
Al               1.4999999935        2.5032135797        2.1726576911
Al               2.4983297080        0.5016702788        2.1574252937
Al               2.5032135797        1.4999999935        2.1726576911
Al               2.4983297080        2.4983297080        2.1574252937
O                1.4999999970        1.4999999970        2.6436291970    0   0   1



     Writing config-only to output data dir ./tmp/Al.save/ :
     XML data file
     NEW-OLD atomic charge density approx. for the potential

     negative rho (up, down):  5.463E-04 0.000E+00

     total cpu time spent up to now is     1043.1 secs

     Self-consistent Calculation

     iteration #  1     ecut=    40.00 Ry     beta= 0.50
     Davidson diagonalization with overlap
     ethr =  1.00E-06,  avg # of iterations =  2.0

     Threshold (ethr) on eigenvalues was too large:
     Diagonalizing with lowered threshold

     Davidson diagonalization with overlap
     ethr =  2.03E-09,  avg # of iterations = 10.3

     negative rho (up, down):  5.446E-04 0.000E+00

     total cpu time spent up to now is     1100.3 secs

     total energy              =   -1463.08892015 Ry
     estimated scf accuracy    <       0.00000679 Ry

     iteration #  2     ecut=    40.00 Ry     beta= 0.50
     Davidson diagonalization with overlap
     ethr =  5.96E-09,  avg # of iterations =  1.0

     negative rho (up, down):  5.444E-04 0.000E+00

     total cpu time spent up to now is     1122.7 secs

     total energy              =   -1463.08891951 Ry
     estimated scf accuracy    <       0.00000282 Ry

     iteration #  3     ecut=    40.00 Ry     beta= 0.50
     Davidson diagonalization with overlap
     ethr =  2.48E-09,  avg # of iterations =  4.3

     negative rho (up, down):  5.451E-04 0.000E+00

     total cpu time spent up to now is     1149.4 secs

     total energy              =   -1463.08891998 Ry
     estimated scf accuracy    <       0.00000024 Ry

     iteration #  4     ecut=    40.00 Ry     beta= 0.50
     Davidson diagonalization with overlap
     ethr =  2.09E-10,  avg # of iterations =  5.7

     negative rho (up, down):  5.451E-04 0.000E+00

     total cpu time spent up to now is     1177.4 secs

     total energy              =   -1463.08892000 Ry
     estimated scf accuracy    <       0.00000007 Ry

     iteration #  5     ecut=    40.00 Ry     beta= 0.50
     Davidson diagonalization with overlap
     ethr =  6.28E-11,  avg # of iterations =  4.3

     negative rho (up, down):  5.455E-04 0.000E+00

     total cpu time spent up to now is     1202.4 secs

     total energy              =   -1463.08892001 Ry
     estimated scf accuracy    <       0.00000007 Ry

     iteration #  6     ecut=    40.00 Ry     beta= 0.50
     Davidson diagonalization with overlap
     ethr =  6.28E-11,  avg # of iterations =  1.0

     negative rho (up, down):  5.428E-04 0.000E+00

     total cpu time spent up to now is     1225.2 secs

     total energy              =   -1463.08892000 Ry
     estimated scf accuracy    <       0.00000009 Ry

     iteration #  7     ecut=    40.00 Ry     beta= 0.50
     Davidson diagonalization with overlap
     ethr =  6.28E-11,  avg # of iterations =  4.0

     negative rho (up, down):  5.437E-04 0.000E+00

     total cpu time spent up to now is     1251.4 secs

     total energy              =   -1463.08892001 Ry
     estimated scf accuracy    <       0.00000001 Ry

     iteration #  8     ecut=    40.00 Ry     beta= 0.50
     Davidson diagonalization with overlap
     ethr =  1.21E-11,  avg # of iterations =  5.0

     negative rho (up, down):  5.450E-04 0.000E+00

     total cpu time spent up to now is     1275.9 secs

     total energy              =   -1463.08892001 Ry
     estimated scf accuracy    <          2.0E-09 Ry

     iteration #  9     ecut=    40.00 Ry     beta= 0.50
     Davidson diagonalization with overlap
     ethr =  1.80E-12,  avg # of iterations =  9.3

     negative rho (up, down):  5.474E-04 0.000E+00

     total cpu time spent up to now is     1303.9 secs

     End of self-consistent calculation

          k = 0.0417 0.0417 0.0000 ( 48283 PWs)   bands (ev):

   -16.7982 -10.6268  -9.2555  -9.1301  -9.1255  -8.1410  -8.1328  -7.7817
    -7.7732  -7.6448  -7.1133  -6.7974  -6.7955  -6.6759  -6.6539  -6.3130
    -5.7071  -5.6966  -5.6158  -5.3488  -5.3473  -4.7354  -4.6820  -4.4062
    -4.3227  -4.1840  -3.7754  -3.7488  -3.3440  -3.3046  -2.9780  -2.9560
    -2.5933  -2.5757  -2.4946  -2.4095  -2.4071  -2.2067  -2.1058  -2.0269
    -1.9845  -1.9704  -1.8766  -1.8387  -1.6578  -1.3372  -1.2783  -1.1229
    -1.0502  -0.9810  -0.7775  -0.6853  -0.6748  -0.5939  -0.5090  -0.4243
    -0.4059  -0.3751  -0.0568   0.0105   0.1960   0.3463   0.3749   0.4047
     0.6757   0.7355   0.7916   0.8060

          k = 0.0417 0.1250 0.0000 ( 48328 PWs)   bands (ev):

   -16.7982 -10.3760  -9.8755  -9.0083  -8.8795  -8.5139  -8.3842  -7.8902
    -7.5328  -7.3987  -7.0479  -6.9088  -6.8672  -6.5578  -6.3745  -6.0693
    -5.6053  -5.4543  -5.4261  -5.4168  -4.9448  -4.5074  -4.4692  -4.1917
    -4.1535  -4.0841  -3.9997  -3.9738  -3.6151  -3.5272  -3.5200  -3.2601
    -3.1098  -3.0709  -2.8421  -2.7428  -2.4763  -2.3463  -2.3090  -2.2096
    -2.0733  -1.9066  -1.8368  -1.7874  -1.6411  -1.6324  -1.4912  -1.4078
    -1.2607  -1.2331  -1.0479  -0.7984  -0.5950  -0.4936  -0.2339  -0.2163
    -0.0692   0.0283   0.0731   0.2242   0.2323   0.2755   0.4800   0.6258
     0.7431   0.9393   1.2269   1.3735

          k = 0.1250 0.1250 0.0000 ( 48243 PWs)   bands (ev):

   -16.7981 -10.1255  -9.6276  -9.6241  -9.1278  -8.7614  -8.2767  -8.2591
    -7.7768  -6.6725  -6.6577  -6.6307  -6.1959  -6.1911  -6.1658  -6.0831
    -5.6509  -5.3770  -5.3482  -5.1901  -5.1784  -4.8976  -4.8796  -4.7057
    -4.7032  -3.9242  -3.9047  -3.8477  -3.4806  -3.4566  -3.4115  -3.3956
    -3.3350  -3.2959  -3.2910  -2.9661  -2.8797  -2.8693  -2.4583  -2.2426
    -2.1976  -2.0610  -1.8193  -1.6920  -1.5990  -1.3999  -1.3961  -1.1958
    -1.1365  -1.0757  -0.9254  -0.8485  -0.4297  -0.3606  -0.2728  -0.1534
     0.0153   0.1914   0.2619   0.3473   0.3726   0.4191   0.5310   0.7821
     1.0211   1.0300   1.1499   1.2527

     the Fermi energy is    -0.0848 ev

!    total energy              =   -1463.08892001 Ry
     total all-electron energy =    -17633.075949 Ry
     estimated scf accuracy    <          1.2E-10 Ry
     smearing contrib. (-TS)   =      -0.01594445 Ry
     internal energy E=F+TS    =   -1463.07297556 Ry

     The total energy is F=E-TS. E is the sum of the following terms:
     one-electron contribution =   -1641.21376843 Ry
     hartree contribution      =     849.22457307 Ry
     xc contribution           =     -98.55841944 Ry
     ewald contribution        =     685.43394705 Ry
     one-center paw contrib.   =   -1257.95930781 Ry

     convergence has been achieved in   9 iterations

     negative rho (up, down):  5.474E-04 0.000E+00

     Forces acting on atoms (cartesian axes, Ry/au):

     atom    1 type  1   force =     0.00000000    0.00000000   -0.00613926
     atom    2 type  1   force =     0.00000000    0.00054817   -0.00691661
     atom    3 type  1   force =     0.00000000   -0.00054817   -0.00691661
     atom    4 type  1   force =     0.00054817    0.00000000   -0.00691661
     atom    5 type  1   force =    -0.00006674   -0.00006674   -0.00508112
     atom    6 type  1   force =    -0.00006674    0.00006674   -0.00508112
     atom    7 type  1   force =    -0.00054817    0.00000000   -0.00691661
     atom    8 type  1   force =     0.00006674   -0.00006674   -0.00508112
     atom    9 type  1   force =     0.00006674    0.00006674   -0.00508112
     atom   10 type  1   force =    -0.00148451   -0.00148451    0.00289151
     atom   11 type  1   force =     0.00015143    0.00000000    0.00347751
     atom   12 type  1   force =    -0.00148451    0.00148451    0.00289151
     atom   13 type  1   force =     0.00000000    0.00015143    0.00347751
     atom   14 type  1   force =     0.00000000    0.00000000    0.00488366
     atom   15 type  1   force =     0.00000000   -0.00015143    0.00347751
     atom   16 type  1   force =     0.00148451   -0.00148451    0.00289151
     atom   17 type  1   force =    -0.00015143    0.00000000    0.00347751
     atom   18 type  1   force =     0.00148451    0.00148451    0.00289151
     atom   19 type  1   force =     0.00000000    0.00000000    0.00164491
     atom   20 type  1   force =     0.00000000    0.00017099    0.00137391
     atom   21 type  1   force =     0.00000000   -0.00017099    0.00137391
     atom   22 type  1   force =     0.00017099    0.00000000    0.00137391
     atom   23 type  1   force =    -0.00008204   -0.00008204    0.00103634
     atom   24 type  1   force =    -0.00008204    0.00008204    0.00103634
     atom   25 type  1   force =    -0.00017099    0.00000000    0.00137391
     atom   26 type  1   force =     0.00008204   -0.00008204    0.00103634
     atom   27 type  1   force =     0.00008204    0.00008204    0.00103634
     atom   28 type  1   force =     0.00021749    0.00021749    0.00137031
     atom   29 type  1   force =    -0.00009235    0.00000000    0.00153408
     atom   30 type  1   force =     0.00021749   -0.00021749    0.00137031
     atom   31 type  1   force =     0.00000000   -0.00009235    0.00153408
     atom   32 type  1   force =     0.00000000    0.00000000   -0.00011608
     atom   33 type  1   force =     0.00000000    0.00009235    0.00153408
     atom   34 type  1   force =    -0.00021749    0.00021749    0.00137031
     atom   35 type  1   force =     0.00009235    0.00000000    0.00153408
     atom   36 type  1   force =    -0.00021749   -0.00021749    0.00137031
     atom   37 type  2   force =     0.00000000    0.00000000    0.00098304

     Total force =     0.005748     Total SCF correction =     0.000007
     Energy error            =      6.4E-05 Ry
     Gradient error          =      1.6E-03 Ry/Bohr

     number of scf cycles    =   4
     number of bfgs steps    =   3

     energy             old  =   -1463.0888557208 Ry
     energy             new  =   -1463.0889200108 Ry

     CASE: energy            _new < energy            _old

     new trust radius        =       0.0049645792 bohr
     new conv_thr            =       0.0000000010 Ry


ATOMIC_POSITIONS (alat)
Al               0.0000000000        0.0000000000        0.0000000000    0   0   0
Al               0.0000000000        0.9999999955        0.0000000000    0   0   0
Al               0.0000000000        1.9999999913        0.0000000000    0   0   0
Al               0.9999999955        0.0000000000        0.0000000000    0   0   0
Al               0.9999999955        0.9999999955        0.0000000000    0   0   0
Al               0.9999999955        1.9999999913        0.0000000000    0   0   0
Al               1.9999999913        0.0000000000        0.0000000000    0   0   0
Al               1.9999999913        0.9999999955        0.0000000000    0   0   0
Al               1.9999999913        1.9999999913        0.0000000000    0   0   0
Al               0.4999999978        0.4999999978        0.7071067659    0   0   0
Al               0.4999999978        1.4999999935        0.7071067659    0   0   0
Al               0.4999999978        2.4999999890        0.7071067659    0   0   0
Al               1.4999999935        0.4999999978        0.7071067659    0   0   0
Al               1.4999999935        1.4999999935        0.7071067659    0   0   0
Al               1.4999999935        2.4999999890        0.7071067659    0   0   0
Al               2.4999999890        0.4999999978        0.7071067659    0   0   0
Al               2.4999999890        1.4999999935        0.7071067659    0   0   0
Al               2.4999999890        2.4999999890        0.7071067659    0   0   0
Al               0.0000000000        0.0000000000        1.4322041509
Al               0.0000000000        1.0007935849        1.4322106696
Al               0.0000000000        1.9992064019        1.4322106696
Al               1.0007935849        0.0000000000        1.4322106696
Al               0.9916984458        0.9916984458        1.4259947329
Al               0.9916984458        2.0083015410        1.4259947329
Al               1.9992064019        0.0000000000        1.4322106696
Al               2.0083015410        0.9916984458        1.4259947329
Al               2.0083015410        2.0083015410        1.4259947329
Al               0.5017942381        0.5017942381        2.1581392454
Al               0.4967184587        1.4999999935        2.1734620070
Al               0.5017942381        2.4982057487        2.1581392454
Al               1.4999999935        0.4967184587        2.1734620070
Al               1.4999999935        1.4999999935        2.0564563555
Al               1.4999999935        2.5032815281        2.1734620070
Al               2.4982057487        0.5017942381        2.1581392454
Al               2.5032815281        1.4999999935        2.1734620070
Al               2.4982057487        2.4982057487        2.1581392454
O                1.4999999970        1.4999999970        2.6438434621    0   0   1



     Writing config-only to output data dir ./tmp/Al.save/ :
     XML data file
     NEW-OLD atomic charge density approx. for the potential

     negative rho (up, down):  5.456E-04 0.000E+00

     total cpu time spent up to now is     1325.1 secs

     Self-consistent Calculation

     iteration #  1     ecut=    40.00 Ry     beta= 0.50
     Davidson diagonalization with overlap
     ethr =  1.00E-06,  avg # of iterations =  2.0

     Threshold (ethr) on eigenvalues was too large:
     Diagonalizing with lowered threshold

     Davidson diagonalization with overlap
     ethr =  3.94E-09,  avg # of iterations = 10.7

     negative rho (up, down):  5.395E-04 0.000E+00

     total cpu time spent up to now is     1384.9 secs

     total energy              =   -1463.08901133 Ry
     estimated scf accuracy    <       0.00001582 Ry

     iteration #  2     ecut=    40.00 Ry     beta= 0.50
     Davidson diagonalization with overlap
     ethr =  1.39E-08,  avg # of iterations =  1.0

     negative rho (up, down):  5.356E-04 0.000E+00

     total cpu time spent up to now is     1407.3 secs

     total energy              =   -1463.08900992 Ry
     estimated scf accuracy    <       0.00000663 Ry

     iteration #  3     ecut=    40.00 Ry     beta= 0.50
     Davidson diagonalization with overlap
     ethr =  5.82E-09,  avg # of iterations =  4.0

     negative rho (up, down):  5.398E-04 0.000E+00

     total cpu time spent up to now is     1433.8 secs

     total energy              =   -1463.08901095 Ry
     estimated scf accuracy    <       0.00000038 Ry

     iteration #  4     ecut=    40.00 Ry     beta= 0.50
     Davidson diagonalization with overlap
     ethr =  3.35E-10,  avg # of iterations =  7.3

     negative rho (up, down):  5.398E-04 0.000E+00

     total cpu time spent up to now is     1464.4 secs

     total energy              =   -1463.08901104 Ry
     estimated scf accuracy    <       0.00000019 Ry

     iteration #  5     ecut=    40.00 Ry     beta= 0.50
     Davidson diagonalization with overlap
     ethr =  1.71E-10,  avg # of iterations =  1.7

     negative rho (up, down):  5.403E-04 0.000E+00

     total cpu time spent up to now is     1487.5 secs

     total energy              =   -1463.08901102 Ry
     estimated scf accuracy    <       0.00000024 Ry

     iteration #  6     ecut=    40.00 Ry     beta= 0.50
     Davidson diagonalization with overlap
     ethr =  1.71E-10,  avg # of iterations =  1.0

     negative rho (up, down):  5.410E-04 0.000E+00

     total cpu time spent up to now is     1510.3 secs

     total energy              =   -1463.08901102 Ry
     estimated scf accuracy    <       0.00000012 Ry

     iteration #  7     ecut=    40.00 Ry     beta= 0.50
     Davidson diagonalization with overlap
     ethr =  1.02E-10,  avg # of iterations =  4.0

     negative rho (up, down):  5.414E-04 0.000E+00

     total cpu time spent up to now is     1536.7 secs

     total energy              =   -1463.08901103 Ry
     estimated scf accuracy    <          6.9E-09 Ry

     iteration #  8     ecut=    40.00 Ry     beta= 0.50
     Davidson diagonalization with overlap
     ethr =  6.02E-12,  avg # of iterations = 10.7

     negative rho (up, down):  5.416E-04 0.000E+00

     total cpu time spent up to now is     1568.2 secs

     total energy              =   -1463.08901103 Ry
     estimated scf accuracy    <          5.3E-09 Ry

     iteration #  9     ecut=    40.00 Ry     beta= 0.50
     Davidson diagonalization with overlap
     ethr =  4.61E-12,  avg # of iterations =  1.0

     negative rho (up, down):  5.429E-04 0.000E+00

     total cpu time spent up to now is     1590.7 secs

     total energy              =   -1463.08901102 Ry
     estimated scf accuracy    <          4.5E-09 Ry

     iteration # 10     ecut=    40.00 Ry     beta= 0.50
     Davidson diagonalization with overlap
     ethr =  3.95E-12,  avg # of iterations =  4.7

     negative rho (up, down):  5.441E-04 0.000E+00

     total cpu time spent up to now is     1617.6 secs

     total energy              =   -1463.08901102 Ry
     estimated scf accuracy    <          1.8E-09 Ry

     iteration # 11     ecut=    40.00 Ry     beta= 0.50
     Davidson diagonalization with overlap
     ethr =  1.58E-12,  avg # of iterations =  5.3

     negative rho (up, down):  5.444E-04 0.000E+00

     total cpu time spent up to now is     1644.2 secs

     total energy              =   -1463.08901102 Ry
     estimated scf accuracy    <          3.8E-09 Ry

     iteration # 12     ecut=    40.00 Ry     beta= 0.50
     Davidson diagonalization with overlap
     ethr =  1.58E-12,  avg # of iterations =  2.0

     negative rho (up, down):  5.472E-04 0.000E+00

     total cpu time spent up to now is     1664.2 secs

     End of self-consistent calculation

          k = 0.0417 0.0417 0.0000 ( 48283 PWs)   bands (ev):

   -16.7984 -10.6232  -9.2552  -9.1264  -9.1220  -8.1372  -8.1294  -7.7817
    -7.7727  -7.6412  -7.1119  -6.7974  -6.7950  -6.6725  -6.6501  -6.3128
    -5.7060  -5.6930  -5.6140  -5.3484  -5.3473  -4.7343  -4.6803  -4.4061
    -4.3228  -4.1830  -3.7721  -3.7450  -3.3425  -3.3034  -2.9790  -2.9562
    -2.5929  -2.5752  -2.4943  -2.4063  -2.4036  -2.2061  -2.1060  -2.0271
    -1.9818  -1.9707  -1.8734  -1.8350  -1.6573  -1.3374  -1.2784  -1.1229
    -1.0465  -0.9805  -0.7777  -0.6853  -0.6750  -0.5905  -0.5094  -0.4242
    -0.4051  -0.3751  -0.0562   0.0110   0.1958   0.3464   0.3745   0.4072
     0.6763   0.7356   0.7939   0.8094

          k = 0.0417 0.1250 0.0000 ( 48328 PWs)   bands (ev):

   -16.7984 -10.3724  -9.8719  -9.0080  -8.8759  -8.5136  -8.3806  -7.8866
    -7.5326  -7.3951  -7.0478  -6.9054  -6.8655  -6.5576  -6.3731  -6.0690
    -5.6046  -5.4507  -5.4232  -5.4152  -4.9434  -4.5038  -4.4677  -4.1911
    -4.1534  -4.0844  -3.9968  -3.9725  -3.6155  -3.5242  -3.5184  -3.2592
    -3.1068  -3.0674  -2.8420  -2.7430  -2.4761  -2.3459  -2.3091  -2.2093
    -2.0727  -1.9061  -1.8367  -1.7880  -1.6384  -1.6318  -1.4910  -1.4076
    -1.2611  -1.2296  -1.0470  -0.7982  -0.5950  -0.4931  -0.2336  -0.2164
    -0.0684   0.0292   0.0758   0.2248   0.2356   0.2767   0.4800   0.6253
     0.7424   0.9392   1.2270   1.3754

          k = 0.1250 0.1250 0.0000 ( 48243 PWs)   bands (ev):

   -16.7984 -10.1219  -9.6238  -9.6206  -9.1242  -8.7612  -8.2768  -8.2586
    -7.7766  -6.6689  -6.6542  -6.6290  -6.1948  -6.1877  -6.1621  -6.0812
    -5.6495  -5.3760  -5.3477  -5.1873  -5.1751  -4.8968  -4.8787  -4.7027
    -4.7001  -3.9244  -3.9043  -3.8484  -3.4801  -3.4577  -3.4115  -3.3934
    -3.3332  -3.2948  -3.2903  -2.9665  -2.8782  -2.8681  -2.4548  -2.2421
    -2.1974  -2.0601  -1.8190  -1.6907  -1.5980  -1.4003  -1.3949  -1.1961
    -1.1358  -1.0724  -0.9259  -0.8487  -0.4308  -0.3602  -0.2727  -0.1511
     0.0158   0.1911   0.2625   0.3508   0.3750   0.4230   0.5315   0.7826
     1.0206   1.0305   1.1500   1.2516

     the Fermi energy is    -0.0841 ev

!    total energy              =   -1463.08901101 Ry
     total all-electron energy =    -17633.076040 Ry
     estimated scf accuracy    <          9.5E-10 Ry
     smearing contrib. (-TS)   =      -0.01575343 Ry
     internal energy E=F+TS    =   -1463.07325758 Ry

     The total energy is F=E-TS. E is the sum of the following terms:
     one-electron contribution =   -1640.59105953 Ry
     hartree contribution      =     848.91574842 Ry
     xc contribution           =     -98.55398430 Ry
     ewald contribution        =     685.11468967 Ry
     one-center paw contrib.   =   -1257.95865184 Ry

     convergence has been achieved in  12 iterations

     negative rho (up, down):  5.472E-04 0.000E+00

     Forces acting on atoms (cartesian axes, Ry/au):

     atom    1 type  1   force =     0.00000000    0.00000000   -0.00611865
     atom    2 type  1   force =     0.00000000    0.00055066   -0.00689754
     atom    3 type  1   force =     0.00000000   -0.00055066   -0.00689754
     atom    4 type  1   force =     0.00055066    0.00000000   -0.00689754
     atom    5 type  1   force =    -0.00006717   -0.00006717   -0.00506308
     atom    6 type  1   force =    -0.00006717    0.00006717   -0.00506308
     atom    7 type  1   force =    -0.00055066    0.00000000   -0.00689754
     atom    8 type  1   force =     0.00006717   -0.00006717   -0.00506308
     atom    9 type  1   force =     0.00006717    0.00006717   -0.00506308
     atom   10 type  1   force =    -0.00149766   -0.00149766    0.00310178
     atom   11 type  1   force =     0.00014428    0.00000000    0.00365439
     atom   12 type  1   force =    -0.00149766    0.00149766    0.00310178
     atom   13 type  1   force =     0.00000000    0.00014428    0.00365439
     atom   14 type  1   force =     0.00000000    0.00000000    0.00503873
     atom   15 type  1   force =     0.00000000   -0.00014428    0.00365439
     atom   16 type  1   force =     0.00149766   -0.00149766    0.00310178
     atom   17 type  1   force =    -0.00014428    0.00000000    0.00365439
     atom   18 type  1   force =     0.00149766    0.00149766    0.00310178
     atom   19 type  1   force =     0.00000000    0.00000000    0.00142102
     atom   20 type  1   force =     0.00000000    0.00010374    0.00115754
     atom   21 type  1   force =     0.00000000   -0.00010374    0.00115754
     atom   22 type  1   force =     0.00010374    0.00000000    0.00115754
     atom   23 type  1   force =    -0.00009779   -0.00009779    0.00085175
     atom   24 type  1   force =    -0.00009779    0.00009779    0.00085175
     atom   25 type  1   force =    -0.00010374    0.00000000    0.00115754
     atom   26 type  1   force =     0.00009779   -0.00009779    0.00085175
     atom   27 type  1   force =     0.00009779    0.00009779    0.00085175
     atom   28 type  1   force =     0.00017782    0.00017782    0.00135357
     atom   29 type  1   force =    -0.00001126    0.00000000    0.00150901
     atom   30 type  1   force =     0.00017782   -0.00017782    0.00135357
     atom   31 type  1   force =     0.00000000   -0.00001126    0.00150901
     atom   32 type  1   force =     0.00000000    0.00000000   -0.00005487
     atom   33 type  1   force =     0.00000000    0.00001126    0.00150901
     atom   34 type  1   force =    -0.00017782    0.00017782    0.00135357
     atom   35 type  1   force =     0.00001126    0.00000000    0.00150901
     atom   36 type  1   force =    -0.00017782   -0.00017782    0.00135357
     atom   37 type  2   force =     0.00000000    0.00000000    0.00104416

     Total force =     0.005309     Total SCF correction =     0.000045
     Energy error            =      9.1E-05 Ry
     Gradient error          =      1.5E-03 Ry/Bohr

     number of scf cycles    =   5
     number of bfgs steps    =   4

     energy             old  =   -1463.0889200108 Ry
     energy             new  =   -1463.0890110135 Ry

     CASE: energy            _new < energy            _old

     new trust radius        =       0.0074468687 bohr
     new conv_thr            =       0.0000000010 Ry


ATOMIC_POSITIONS (alat)
Al               0.0000000000        0.0000000000        0.0000000000    0   0   0
Al               0.0000000000        0.9999999955        0.0000000000    0   0   0
Al               0.0000000000        1.9999999913        0.0000000000    0   0   0
Al               0.9999999955        0.0000000000        0.0000000000    0   0   0
Al               0.9999999955        0.9999999955        0.0000000000    0   0   0
Al               0.9999999955        1.9999999913        0.0000000000    0   0   0
Al               1.9999999913        0.0000000000        0.0000000000    0   0   0
Al               1.9999999913        0.9999999955        0.0000000000    0   0   0
Al               1.9999999913        1.9999999913        0.0000000000    0   0   0
Al               0.4999999978        0.4999999978        0.7071067659    0   0   0
Al               0.4999999978        1.4999999935        0.7071067659    0   0   0
Al               0.4999999978        2.4999999890        0.7071067659    0   0   0
Al               1.4999999935        0.4999999978        0.7071067659    0   0   0
Al               1.4999999935        1.4999999935        0.7071067659    0   0   0
Al               1.4999999935        2.4999999890        0.7071067659    0   0   0
Al               2.4999999890        0.4999999978        0.7071067659    0   0   0
Al               2.4999999890        1.4999999935        0.7071067659    0   0   0
Al               2.4999999890        2.4999999890        0.7071067659    0   0   0
Al               0.0000000000        0.0000000000        1.4335846292
Al               0.0000000000        1.0009226019        1.4333564510
Al               0.0000000000        1.9990773849        1.4333564510
Al               1.0009226019        0.0000000000        1.4333564510
Al               0.9916154626        0.9916154626        1.4268450502
Al               0.9916154626        2.0083845242        1.4268450502
Al               1.9990773849        0.0000000000        1.4333564510
Al               2.0083845242        0.9916154626        1.4268450502
Al               2.0083845242        2.0083845242        1.4268450502
Al               0.5019720707        0.5019720707        2.1593470002
Al               0.4966727682        1.4999999935        2.1748171092
Al               0.5019720707        2.4980279161        2.1593470002
Al               1.4999999935        0.4966727682        2.1748171092
Al               1.4999999935        1.4999999935        2.0568709832
Al               1.4999999935        2.5033272186        2.1748171092
Al               2.4980279161        0.5019720707        2.1593470002
Al               2.5033272186        1.4999999935        2.1748171092
Al               2.4980279161        2.4980279161        2.1593470002
O                1.4999999970        1.4999999970        2.6442551725    0   0   1



     Writing config-only to output data dir ./tmp/Al.save/ :
     XML data file
     NEW-OLD atomic charge density approx. for the potential

     negative rho (up, down):  5.442E-04 0.000E+00

     total cpu time spent up to now is     1685.5 secs

     Self-consistent Calculation

     iteration #  1     ecut=    40.00 Ry     beta= 0.50
     Davidson diagonalization with overlap
     ethr =  1.00E-06,  avg # of iterations =  2.0

     Threshold (ethr) on eigenvalues was too large:
     Diagonalizing with lowered threshold

     Davidson diagonalization with overlap
     ethr =  1.01E-08,  avg # of iterations = 10.3

     negative rho (up, down):  5.403E-04 0.000E+00

     total cpu time spent up to now is     1745.5 secs

     total energy              =   -1463.08914146 Ry
     estimated scf accuracy    <       0.00003783 Ry

     iteration #  2     ecut=    40.00 Ry     beta= 0.50
     Davidson diagonalization with overlap
     ethr =  3.32E-08,  avg # of iterations =  1.0

     negative rho (up, down):  5.415E-04 0.000E+00

     total cpu time spent up to now is     1768.1 secs

     total energy              =   -1463.08913830 Ry
     estimated scf accuracy    <       0.00001547 Ry

     iteration #  3     ecut=    40.00 Ry     beta= 0.50
     Davidson diagonalization with overlap
     ethr =  1.36E-08,  avg # of iterations =  3.7

     negative rho (up, down):  5.438E-04 0.000E+00

     total cpu time spent up to now is     1793.8 secs

     total energy              =   -1463.08914071 Ry
     estimated scf accuracy    <       0.00000066 Ry

     iteration #  4     ecut=    40.00 Ry     beta= 0.50
     Davidson diagonalization with overlap
     ethr =  5.78E-10,  avg # of iterations =  7.3

     negative rho (up, down):  5.437E-04 0.000E+00

     total cpu time spent up to now is     1825.8 secs

     total energy              =   -1463.08914091 Ry
     estimated scf accuracy    <       0.00000052 Ry

     iteration #  5     ecut=    40.00 Ry     beta= 0.50
     Davidson diagonalization with overlap
     ethr =  4.52E-10,  avg # of iterations =  1.0

     negative rho (up, down):  5.440E-04 0.000E+00

     total cpu time spent up to now is     1848.3 secs

     total energy              =   -1463.08914092 Ry
     estimated scf accuracy    <       0.00000051 Ry

     iteration #  6     ecut=    40.00 Ry     beta= 0.50
     Davidson diagonalization with overlap
     ethr =  4.46E-10,  avg # of iterations =  1.0

     negative rho (up, down):  5.310E-04 0.000E+00

     total cpu time spent up to now is     1870.7 secs

     total energy              =   -1463.08914072 Ry
     estimated scf accuracy    <       0.00000054 Ry

     iteration #  7     ecut=    40.00 Ry     beta= 0.50
     Davidson diagonalization with overlap
     ethr =  4.46E-10,  avg # of iterations =  2.0

     negative rho (up, down):  5.315E-04 0.000E+00

     total cpu time spent up to now is     1895.8 secs

     total energy              =   -1463.08914081 Ry
     estimated scf accuracy    <       0.00000002 Ry

     iteration #  8     ecut=    40.00 Ry     beta= 0.50
     Davidson diagonalization with overlap
     ethr =  1.78E-11,  avg # of iterations = 11.3

     negative rho (up, down):  5.409E-04 0.000E+00

     total cpu time spent up to now is     1932.3 secs

     total energy              =   -1463.08914086 Ry
     estimated scf accuracy    <       0.00000021 Ry

     iteration #  9     ecut=    40.00 Ry     beta= 0.50
     Davidson diagonalization with overlap
     ethr =  1.78E-11,  avg # of iterations =  6.7

     negative rho (up, down):  5.420E-04 0.000E+00

     total cpu time spent up to now is     1960.7 secs

     total energy              =   -1463.08914087 Ry
     estimated scf accuracy    <          2.4E-09 Ry

     iteration # 10     ecut=    40.00 Ry     beta= 0.50
     Davidson diagonalization with overlap
     ethr =  2.08E-12,  avg # of iterations =  5.3

     negative rho (up, down):  5.469E-04 0.000E+00

     total cpu time spent up to now is     1985.6 secs

     End of self-consistent calculation

          k = 0.0417 0.0417 0.0000 ( 48283 PWs)   bands (ev):

   -16.7992 -10.6174  -9.2541  -9.1204  -9.1165  -8.1312  -8.1238  -7.7810
[...]
     Energy error            =      1.6E-04 Ry
     Gradient error          =      3.5E-04 Ry/Bohr

     number of scf cycles    =   9
     number of bfgs steps    =   8

     energy             old  =   -1463.0894772865 Ry
     energy             new  =   -1463.0896360906 Ry

     CASE: energy            _new < energy            _old

     new trust radius        =       0.0194478190 bohr
     new conv_thr            =       0.0000000010 Ry


ATOMIC_POSITIONS (alat)
Al               0.0000000000        0.0000000000        0.0000000000    0   0   0
Al               0.0000000000        0.9999999959        0.0000000000    0   0   0
Al               0.0000000000        1.9999999921        0.0000000000    0   0   0
Al               0.9999999959        0.0000000000        0.0000000000    0   0   0
Al               0.9999999959        0.9999999959        0.0000000000    0   0   0
Al               0.9999999959        1.9999999921        0.0000000000    0   0   0
Al               1.9999999921        0.0000000000        0.0000000000    0   0   0
Al               1.9999999921        0.9999999959        0.0000000000    0   0   0
Al               1.9999999921        1.9999999921        0.0000000000    0   0   0
Al               0.4999999980        0.4999999980        0.7071067662    0   0   0
Al               0.4999999980        1.4999999941        0.7071067662    0   0   0
Al               0.4999999980        2.4999999900        0.7071067662    0   0   0
Al               1.4999999941        0.4999999980        0.7071067662    0   0   0
Al               1.4999999941        1.4999999941        0.7071067662    0   0   0
Al               1.4999999941        2.4999999900        0.7071067662    0   0   0
Al               2.4999999900        0.4999999980        0.7071067662    0   0   0
Al               2.4999999900        1.4999999941        0.7071067662    0   0   0
Al               2.4999999900        2.4999999900        0.7071067662    0   0   0
Al               0.0000000000        0.0000000000        1.4430722058
Al               0.0000000000        1.0010684253        1.4412451807
Al               0.0000000000        1.9989315627        1.4412451807
Al               1.0010684253        0.0000000000        1.4412451807
Al               0.9907765929        0.9907765929        1.4323895282
Al               0.9907765929        2.0092233951        1.4323895282
Al               1.9989315627        0.0000000000        1.4412451807
Al               2.0092233951        0.9907765929        1.4323895282
Al               2.0092233951        2.0092233951        1.4323895282
Al               0.5029022149        0.5029022149        2.1714631221
Al               0.4979013110        1.4999999941        2.1881964035
Al               0.5029022149        2.4970977731        2.1714631221
Al               1.4999999941        0.4979013110        2.1881964035
Al               1.4999999941        1.4999999941        2.0616485943
Al               1.4999999941        2.5020986770        2.1881964035
Al               2.4970977731        0.5029022149        2.1714631221
Al               2.5020986770        1.4999999941        2.1881964035
Al               2.4970977731        2.4970977731        2.1714631221
O                1.4999999976        1.4999999976        2.6497642181    0   0   1



     Writing config-only to output data dir ./tmp/Al.save/ :
     XML data file
     NEW-OLD atomic charge density approx. for the potential

     negative rho (up, down):  5.371E-04 0.000E+00

     total cpu time spent up to now is     3178.0 secs

     Self-consistent Calculation

     iteration #  1     ecut=    40.00 Ry     beta= 0.50
     Davidson diagonalization with overlap
     ethr =  1.00E-06,  avg # of iterations =  5.0

     Threshold (ethr) on eigenvalues was too large:
     Diagonalizing with lowered threshold

     Davidson diagonalization with overlap
     ethr =  5.26E-08,  avg # of iterations =  8.7

     negative rho (up, down):  5.178E-04 0.000E+00

     total cpu time spent up to now is     3235.4 secs

     total energy              =   -1463.08967373 Ry
     estimated scf accuracy    <       0.00011643 Ry

     iteration #  2     ecut=    40.00 Ry     beta= 0.50
     Davidson diagonalization with overlap
     ethr =  1.02E-07,  avg # of iterations =  1.0

     negative rho (up, down):  5.069E-04 0.000E+00

     total cpu time spent up to now is     3258.0 secs

     total energy              =   -1463.08966084 Ry
     estimated scf accuracy    <       0.00005131 Ry

     iteration #  3     ecut=    40.00 Ry     beta= 0.50
     Davidson diagonalization with overlap
     ethr =  4.50E-08,  avg # of iterations =  4.3

     negative rho (up, down):  5.169E-04 0.000E+00

     total cpu time spent up to now is     3284.2 secs

     total energy              =   -1463.08967040 Ry
     estimated scf accuracy    <       0.00000357 Ry

     iteration #  4     ecut=    40.00 Ry     beta= 0.50
     Davidson diagonalization with overlap
     ethr =  3.13E-09,  avg # of iterations =  8.0

     negative rho (up, down):  5.163E-04 0.000E+00

     total cpu time spent up to now is     3313.6 secs

     total energy              =   -1463.08967126 Ry
     estimated scf accuracy    <       0.00000276 Ry

     iteration #  5     ecut=    40.00 Ry     beta= 0.50
     Davidson diagonalization with overlap
     ethr =  2.42E-09,  avg # of iterations =  1.0

     negative rho (up, down):  5.262E-04 0.000E+00

     total cpu time spent up to now is     3336.2 secs

     total energy              =   -1463.08967098 Ry
     estimated scf accuracy    <       0.00000319 Ry

     iteration #  6     ecut=    40.00 Ry     beta= 0.50
     Davidson diagonalization with overlap
     ethr =  2.42E-09,  avg # of iterations =  1.3

     negative rho (up, down):  5.297E-04 0.000E+00

     total cpu time spent up to now is     3359.3 secs

     total energy              =   -1463.08967100 Ry
     estimated scf accuracy    <       0.00000138 Ry

     iteration #  7     ecut=    40.00 Ry     beta= 0.50
     Davidson diagonalization with overlap
     ethr =  1.21E-09,  avg # of iterations =  1.7

     negative rho (up, down):  5.321E-04 0.000E+00

     total cpu time spent up to now is     3382.5 secs

     total energy              =   -1463.08967087 Ry
     estimated scf accuracy    <       0.00000084 Ry

     iteration #  8     ecut=    40.00 Ry     beta= 0.50
     Davidson diagonalization with overlap
     ethr =  7.41E-10,  avg # of iterations =  6.0

     negative rho (up, down):  5.290E-04 0.000E+00

     total cpu time spent up to now is     3409.8 secs

     total energy              =   -1463.08967100 Ry
     estimated scf accuracy    <       0.00000004 Ry

     iteration #  9     ecut=    40.00 Ry     beta= 0.50
     Davidson diagonalization with overlap
     ethr =  3.76E-11,  avg # of iterations =  9.7

     negative rho (up, down):  5.310E-04 0.000E+00

     total cpu time spent up to now is     3443.8 secs

     total energy              =   -1463.08967102 Ry
     estimated scf accuracy    <       0.00000006 Ry

     iteration # 10     ecut=    40.00 Ry     beta= 0.50
     Davidson diagonalization with overlap
     ethr =  3.76E-11,  avg # of iterations =  2.0

     negative rho (up, down):  5.373E-04 0.000E+00

     total cpu time spent up to now is     3467.1 secs

     total energy              =   -1463.08967101 Ry
     estimated scf accuracy    <       0.00000002 Ry

     iteration # 11     ecut=    40.00 Ry     beta= 0.50
     Davidson diagonalization with overlap
     ethr =  1.51E-11,  avg # of iterations =  6.0

     negative rho (up, down):  5.370E-04 0.000E+00

     total cpu time spent up to now is     3497.3 secs

     total energy              =   -1463.08967101 Ry
     estimated scf accuracy    <       0.00000002 Ry

     iteration # 12     ecut=    40.00 Ry     beta= 0.50
     Davidson diagonalization with overlap
     ethr =  1.41E-11,  avg # of iterations =  1.0

     negative rho (up, down):  5.378E-04 0.000E+00

     total cpu time spent up to now is     3520.1 secs

     total energy              =   -1463.08967101 Ry
     estimated scf accuracy    <          6.5E-09 Ry

     iteration # 13     ecut=    40.00 Ry     beta= 0.50
     Davidson diagonalization with overlap
     ethr =  5.71E-12,  avg # of iterations =  2.7

     negative rho (up, down):  5.439E-04 0.000E+00

     total cpu time spent up to now is     3540.8 secs

     End of self-consistent calculation

          k = 0.0417 0.0417 0.0000 ( 48283 PWs)   bands (ev):

   -16.8101 -10.5672  -9.2315  -9.0704  -9.0661  -8.0811  -8.0733  -7.7573
    -7.7505  -7.5850  -7.0920  -6.7733  -6.7728  -6.6171  -6.5927  -6.2897
    -5.6891  -5.6365  -5.5939  -5.3255  -5.3249  -4.7171  -4.6622  -4.3883
    -4.3247  -4.1714  -3.7165  -3.6879  -3.3277  -3.2878  -2.9931  -2.9672
    -2.5910  -2.5578  -2.4738  -2.3552  -2.3466  -2.1987  -2.1123  -2.0353
    -1.9772  -1.9362  -1.8208  -1.7790  -1.6547  -1.3372  -1.2806  -1.0983
    -0.9897  -0.9678  -0.7724  -0.6731  -0.6689  -0.5364  -0.5072  -0.4156
    -0.3914  -0.3709  -0.0442   0.0161   0.2028   0.3393   0.3780   0.4502
     0.6872   0.7453   0.8292   0.8641

          k = 0.0417 0.1250 0.0000 ( 48328 PWs)   bands (ev):

   -16.8101 -10.3163  -9.8158  -8.9844  -8.8199  -8.4902  -8.3245  -7.8305
    -7.5094  -7.3387  -7.0248  -6.8564  -6.8382  -6.5346  -6.3541  -6.0462
    -5.5768  -5.3977  -5.3941  -5.3706  -4.9259  -4.4574  -4.4399  -4.1694
    -4.1357  -4.0844  -3.9636  -3.9413  -3.6253  -3.5074  -3.4665  -3.2318
    -3.0565  -3.0129  -2.8422  -2.7366  -2.4742  -2.3420  -2.3143  -2.1928
    -2.0648  -1.8909  -1.8248  -1.7896  -1.6301  -1.5873  -1.4888  -1.4060
    -1.2692  -1.1757  -1.0356  -0.7967  -0.5922  -0.4837  -0.2302  -0.2059
    -0.0581   0.0500   0.1240   0.2340   0.2836   0.2998   0.4790   0.6206
     0.7334   0.9356   1.2286   1.4067

          k = 0.1250 0.1250 0.0000 ( 48243 PWs)   bands (ev):

   -16.8101 -10.0658  -9.5677  -9.5646  -9.0681  -8.7376  -8.2525  -8.2360
    -7.7534  -6.6223  -6.5998  -6.5979  -6.1777  -6.1334  -6.1048  -6.0589
    -5.6314  -5.3492  -5.3187  -5.1381  -5.1223  -4.8684  -4.8511  -4.6528
    -4.6477  -3.9094  -3.8819  -3.8580  -3.4737  -3.4615  -3.3874  -3.3755
    -3.3044  -3.2799  -3.2778  -2.9777  -2.8628  -2.8532  -2.3991  -2.2357
    -2.1850  -2.0528  -1.8152  -1.6739  -1.5851  -1.4076  -1.3778  -1.1881
    -1.1318  -1.0194  -0.9256  -0.8529  -0.4455  -0.3564  -0.2783  -0.1114
     0.0214   0.1846   0.2831   0.4051   0.4184   0.4816   0.5446   0.7849
     1.0128   1.0421   1.1701   1.2369

     the Fermi energy is    -0.0708 ev

!    total energy              =   -1463.08967100 Ry
     total all-electron energy =    -17633.076700 Ry
     estimated scf accuracy    <          9.0E-10 Ry
     smearing contrib. (-TS)   =      -0.01339874 Ry
     internal energy E=F+TS    =   -1463.07627226 Ry

     The total energy is F=E-TS. E is the sum of the following terms:
     one-electron contribution =   -1629.61486714 Ry
     hartree contribution      =     843.46625754 Ry
     xc contribution           =     -98.47054765 Ry
     ewald contribution        =     679.48952449 Ry
     one-center paw contrib.   =   -1257.94663951 Ry

     convergence has been achieved in  13 iterations

     negative rho (up, down):  5.439E-04 0.000E+00

     Forces acting on atoms (cartesian axes, Ry/au):

     atom    1 type  1   force =     0.00000000    0.00000000   -0.00590378
     atom    2 type  1   force =     0.00000000    0.00052740   -0.00669472
     atom    3 type  1   force =     0.00000000   -0.00052740   -0.00669472
     atom    4 type  1   force =     0.00052740    0.00000000   -0.00669472
     atom    5 type  1   force =    -0.00007003   -0.00007003   -0.00488910
     atom    6 type  1   force =    -0.00007003    0.00007003   -0.00488910
     atom    7 type  1   force =    -0.00052740    0.00000000   -0.00669472
     atom    8 type  1   force =     0.00007003   -0.00007003   -0.00488910
     atom    9 type  1   force =     0.00007003    0.00007003   -0.00488910
     atom   10 type  1   force =    -0.00169191   -0.00169191    0.00543958
     atom   11 type  1   force =     0.00001599    0.00000000    0.00585121
     atom   12 type  1   force =    -0.00169191    0.00169191    0.00543958
     atom   13 type  1   force =     0.00000000    0.00001599    0.00585121
     atom   14 type  1   force =     0.00000000    0.00000000    0.00694258
     atom   15 type  1   force =     0.00000000   -0.00001599    0.00585121
     atom   16 type  1   force =     0.00169191   -0.00169191    0.00543958
     atom   17 type  1   force =    -0.00001599    0.00000000    0.00585121
     atom   18 type  1   force =     0.00169191    0.00169191    0.00543958
     atom   19 type  1   force =     0.00000000    0.00000000   -0.00020280
     atom   20 type  1   force =     0.00000000    0.00004877    0.00011707
     atom   21 type  1   force =     0.00000000   -0.00004877    0.00011707
     atom   22 type  1   force =     0.00004877    0.00000000    0.00011707
     atom   23 type  1   force =     0.00005719    0.00005719    0.00009992
     atom   24 type  1   force =     0.00005719   -0.00005719    0.00009992
     atom   25 type  1   force =    -0.00004877    0.00000000    0.00011707
     atom   26 type  1   force =    -0.00005719    0.00005719    0.00009992
     atom   27 type  1   force =    -0.00005719   -0.00005719    0.00009992
     atom   28 type  1   force =    -0.00005816   -0.00005816   -0.00005857
     atom   29 type  1   force =     0.00003722    0.00000000   -0.00004876
     atom   30 type  1   force =    -0.00005816    0.00005816   -0.00005857
     atom   31 type  1   force =     0.00000000    0.00003722   -0.00004876
     atom   32 type  1   force =     0.00000000    0.00000000    0.00009807
     atom   33 type  1   force =     0.00000000   -0.00003722   -0.00004876
     atom   34 type  1   force =     0.00005816   -0.00005816   -0.00005857
     atom   35 type  1   force =    -0.00003722    0.00000000   -0.00004876
     atom   36 type  1   force =     0.00005816    0.00005816   -0.00005857
     atom   37 type  2   force =     0.00000000    0.00000000   -0.00020057

     Total force =     0.000527     Total SCF correction =     0.000039
     Energy error            =      3.5E-05 Ry
     Gradient error          =      2.0E-04 Ry/Bohr

     bfgs converged in  10 scf cycles and   9 bfgs steps
     (criteria: energy <  1.0E-04 Ry, force <  1.0E-03 Ry/Bohr)

     End of BFGS Geometry Optimization

     Final energy             =   -1463.0896710035 Ry

     File ./tmp/Al.bfgs deleted, as requested
Begin final coordinates

ATOMIC_POSITIONS (alat)
Al               0.0000000000        0.0000000000        0.0000000000    0   0   0
Al               0.0000000000        0.9999999959        0.0000000000    0   0   0
Al               0.0000000000        1.9999999921        0.0000000000    0   0   0
Al               0.9999999959        0.0000000000        0.0000000000    0   0   0
Al               0.9999999959        0.9999999959        0.0000000000    0   0   0
Al               0.9999999959        1.9999999921        0.0000000000    0   0   0
Al               1.9999999921        0.0000000000        0.0000000000    0   0   0
Al               1.9999999921        0.9999999959        0.0000000000    0   0   0
Al               1.9999999921        1.9999999921        0.0000000000    0   0   0
Al               0.4999999980        0.4999999980        0.7071067662    0   0   0
Al               0.4999999980        1.4999999941        0.7071067662    0   0   0
Al               0.4999999980        2.4999999900        0.7071067662    0   0   0
Al               1.4999999941        0.4999999980        0.7071067662    0   0   0
Al               1.4999999941        1.4999999941        0.7071067662    0   0   0
Al               1.4999999941        2.4999999900        0.7071067662    0   0   0
Al               2.4999999900        0.4999999980        0.7071067662    0   0   0
Al               2.4999999900        1.4999999941        0.7071067662    0   0   0
Al               2.4999999900        2.4999999900        0.7071067662    0   0   0
Al               0.0000000000        0.0000000000        1.4430722058
Al               0.0000000000        1.0010684253        1.4412451807
Al               0.0000000000        1.9989315627        1.4412451807
Al               1.0010684253        0.0000000000        1.4412451807
Al               0.9907765929        0.9907765929        1.4323895282
Al               0.9907765929        2.0092233951        1.4323895282
Al               1.9989315627        0.0000000000        1.4412451807
Al               2.0092233951        0.9907765929        1.4323895282
Al               2.0092233951        2.0092233951        1.4323895282
Al               0.5029022149        0.5029022149        2.1714631221
Al               0.4979013110        1.4999999941        2.1881964035
Al               0.5029022149        2.4970977731        2.1714631221
Al               1.4999999941        0.4979013110        2.1881964035
Al               1.4999999941        1.4999999941        2.0616485943
Al               1.4999999941        2.5020986770        2.1881964035
Al               2.4970977731        0.5029022149        2.1714631221
Al               2.5020986770        1.4999999941        2.1881964035
Al               2.4970977731        2.4970977731        2.1714631221
O                1.4999999976        1.4999999976        2.6497642181    0   0   1
End final coordinates



     Writing all to output data dir ./tmp/Al.save/ :
     XML data file, charge density, pseudopotentials, collected wavefunctions

     init_run     :     14.09s CPU     15.64s WALL (       1 calls)
     electrons    :   3162.81s CPU   3335.49s WALL (      10 calls)
     update_pot   :     26.30s CPU     28.59s WALL (       9 calls)
     forces       :    117.77s CPU    129.36s WALL (      10 calls)

     Called by init_run:
     wfcinit      :      8.22s CPU      8.69s WALL (       1 calls)
     potinit      :      2.60s CPU      2.87s WALL (       1 calls)
     hinit0       :      0.83s CPU      0.92s WALL (       1 calls)

     Called by electrons:
     c_bands      :   1719.67s CPU   1737.64s WALL (     127 calls)
     sum_band     :    526.35s CPU    599.41s WALL (     127 calls)
     v_of_rho     :    123.11s CPU    139.99s WALL (     128 calls)
     newd         :    242.31s CPU    305.06s WALL (     128 calls)
     PAW_pot      :    216.86s CPU    216.99s WALL (     137 calls)
     mix_rho      :    377.52s CPU    384.64s WALL (     127 calls)

     Called by c_bands:
     init_us_2    :     51.41s CPU     53.98s WALL (     264 calls)
     cegterg      :   1563.25s CPU   1579.06s WALL (     127 calls)

     Called by *egterg:
     cdiaghg      :      3.82s CPU      3.85s WALL (     847 calls)
     h_psi        :   1167.44s CPU   1175.36s WALL (     866 calls)
     s_psi        :    216.66s CPU    217.02s WALL (     866 calls)
     g_psi        :      2.92s CPU      2.94s WALL (     738 calls)

     Called by h_psi:
     h_psi:calbec :    189.90s CPU    192.28s WALL (     866 calls)
     vloc_psi     :    757.32s CPU    758.44s WALL (     866 calls)
     add_vuspsi   :    216.25s CPU    216.63s WALL (     866 calls)

     General routines
     calbec       :    270.34s CPU    273.55s WALL (    1042 calls)
     fft          :     56.16s CPU     56.25s WALL (    1772 calls)
     ffts         :    126.55s CPU    126.74s WALL (   13285 calls)
     fftw         :    650.74s CPU    651.23s WALL (   58124 calls)
     interpolate  :      7.34s CPU      7.44s WALL (     128 calls)

     Parallel routines

     PWSCF        :  56m 0.72s CPU  59m14.78s WALL


   This run was terminated on:  14:14:22  19May2025            

=------------------------------------------------------------------------------=
   JOB DONE.
=------------------------------------------------------------------------------=
