No protocol specified

     Program PWSCF v.7.3.1 starts on 19May2025 at 14:35:44 

     This program is part of the open-source Quantum ESPRESSO suite
     for quantum simulation of materials; please cite
         "P. Giannozzi et al., J. Phys.:Condens. Matter 21 395502 (2009);
         "P. Giannozzi et al., J. Phys.:Condens. Matter 29 465901 (2017);
         "P. Giannozzi et al., J. Chem. Phys. 152 154105 (2020);
          URL http://www.quantum-espresso.org", 
     in publications or presentations arising from this work. More details at
     http://www.quantum-espresso.org/quote

     Parallel version (MPI), running on    12 processors

     MPI processes distributed on     1 nodes
     25306 MiB available memory on the printing compute node when the environment starts

     Waiting for input...
     Reading input from standard input

     Current dimensions of program PWSCF are:
     Max number of different atomic species (ntypx) = 10
     Max number of k-points (npk) =  40000
     Max angular momentum in pseudopotentials (lmaxx) =  4
     Message from routine input:
     WARNING: "startingwfc" set to atomic may spoil restart
     file Al.pbe-n-kjpaw_psl.1.0.0.UPF: wavefunction(s)  3S 3P renormalized
     file O.pbe-n-kjpaw_psl.0.1.UPF: wavefunction(s)  2P renormalized
     Message from routine setup:
     using ibrav=0 with symmetry is DISCOURAGED, use correct ibrav instead

     K-points division:     npool     =       6
     R & G space division:  proc/nbgrp/npool/nimage =       2
     Subspace diagonalization in iterative solution of the eigenvalue problem:
     a serial algorithm will be used


     Parallelization info
     --------------------
     sticks:   dense  smooth     PW     G-vecs:    dense   smooth      PW
     Min        3332    1670    442               546072   193176   26812
     Max        3333    1671    443               546077   193177   26819
     Sum        6665    3341    885              1092149   386353   53631

     Using Slab Decomposition



     bravais-lattice index     =            0
     lattice parameter (alat)  =       5.3944  a.u.
     unit-cell volume          =   11302.2493 (a.u.)^3
     number of atoms/cell      =           37
     number of atomic types    =            2
     number of electrons       =       114.00
     number of Kohn-Sham states=           68
     kinetic-energy cutoff     =      40.0000  Ry
     charge density cutoff     =     320.0000  Ry
     scf convergence threshold =      1.0E-07
     mixing beta               =       0.5000
     number of iterations used =            8  local-TF  mixing
     energy convergence thresh.=      1.0E-04
     force convergence thresh. =      1.0E-03
     Exchange-correlation= SLA  PW   PBX  PBC
                           (   1   4   3   4   0   0   0)
     nstep                     =           50


     celldm(1)=   5.394412  celldm(2)=   0.000000  celldm(3)=   0.000000
     celldm(4)=   0.000000  celldm(5)=   0.000000  celldm(6)=   0.000000

     crystal axes: (cart. coord. in units of alat)
               a(1) = (   3.000000   0.000000   0.000000 )  
               a(2) = (   0.000000   3.000000   0.000000 )  
               a(3) = (   0.000000   0.000000   8.000000 )  

     reciprocal axes: (cart. coord. in units 2 pi/alat)
               b(1) = (  0.333333  0.000000  0.000000 )  
               b(2) = (  0.000000  0.333333  0.000000 )  
               b(3) = (  0.000000  0.000000  0.125000 )  


     PseudoPot. # 1 for Al read from file:
     ../../Pseudo/Al.pbe-n-kjpaw_psl.1.0.0.UPF
     MD5 check sum: dd5adf945272da8132fc805c9e56c2d6
     Pseudo is Projector augmented-wave + core cor, Zval =  3.0
     Generated using "atomic" code by A. Dal Corso  v.5.1
     Shape of augmentation charge: PSQ
     Using radial grid of 1135 points,  6 beta functions with: 
                l(1) =   0
                l(2) =   0
                l(3) =   1
                l(4) =   1
                l(5) =   2
                l(6) =   2
     Q(r) pseudized with 0 coefficients 


     PseudoPot. # 2 for O  read from file:
     ../../Pseudo/O.pbe-n-kjpaw_psl.0.1.UPF
     MD5 check sum: 0234752ac141de4415c5fc33072bef88
     Pseudo is Projector augmented-wave + core cor, Zval =  6.0
     Generated using "atomic" code by A. Dal Corso  v.5.0.99 svn rev. 10869
     Shape of augmentation charge: BESSEL
     Using radial grid of 1095 points,  4 beta functions with: 
                l(1) =   0
                l(2) =   0
                l(3) =   1
                l(4) =   1
     Q(r) pseudized with 0 coefficients 


     atomic species   valence    mass     pseudopotential
     Al                3.00     1.00000     Al( 1.00)
     O                 6.00     1.00000     O ( 1.00)

      8 Sym. Ops. (no inversion) found



   Cartesian axes

     site n.     atom                  positions (alat units)
         1        Al     tau(   1) = (   0.0000000   0.0000000   0.0000000  )
         2        Al     tau(   2) = (   0.0000000   1.0000000   0.0000000  )
         3        Al     tau(   3) = (   0.0000000   2.0000000   0.0000000  )
         4        Al     tau(   4) = (   1.0000000   0.0000000   0.0000000  )
         5        Al     tau(   5) = (   1.0000000   1.0000000   0.0000000  )
         6        Al     tau(   6) = (   1.0000000   2.0000000   0.0000000  )
         7        Al     tau(   7) = (   2.0000000   0.0000000   0.0000000  )
         8        Al     tau(   8) = (   2.0000000   1.0000000   0.0000000  )
         9        Al     tau(   9) = (   2.0000000   2.0000000   0.0000000  )
        10        Al     tau(  10) = (   0.5000000   0.5000000   0.7071068  )
        11        Al     tau(  11) = (   0.5000000   1.5000000   0.7071068  )
        12        Al     tau(  12) = (   0.5000000   2.5000000   0.7071068  )
        13        Al     tau(  13) = (   1.5000000   0.5000000   0.7071068  )
        14        Al     tau(  14) = (   1.5000000   1.5000000   0.7071068  )
        15        Al     tau(  15) = (   1.5000000   2.5000000   0.7071068  )
        16        Al     tau(  16) = (   2.5000000   0.5000000   0.7071068  )
        17        Al     tau(  17) = (   2.5000000   1.5000000   0.7071068  )
        18        Al     tau(  18) = (   2.5000000   2.5000000   0.7071068  )
        19        Al     tau(  19) = (   0.0000000   0.0000000   1.4430722  )
        20        Al     tau(  20) = (   0.0000000   1.0010684   1.4412452  )
        21        Al     tau(  21) = (   0.0000000   1.9989316   1.4412452  )
        22        Al     tau(  22) = (   1.0010684   0.0000000   1.4412452  )
        23        Al     tau(  23) = (   0.9907766   0.9907766   1.4323895  )
        24        Al     tau(  24) = (   0.9907766   2.0092234   1.4323895  )
        25        Al     tau(  25) = (   1.9989316   0.0000000   1.4412452  )
        26        Al     tau(  26) = (   2.0092234   0.9907766   1.4323895  )
        27        Al     tau(  27) = (   2.0092234   2.0092234   1.4323895  )
        28        Al     tau(  28) = (   0.5029022   0.5029022   2.1714631  )
        29        Al     tau(  29) = (   0.4979013   1.5000000   2.1881964  )
        30        Al     tau(  30) = (   0.5029022   2.4970978   2.1714631  )
        31        Al     tau(  31) = (   1.5000000   0.4979013   2.1881964  )
        32        Al     tau(  32) = (   1.5000000   1.5000000   2.0616486  )
        33        Al     tau(  33) = (   1.5000000   2.5020987   2.1881964  )
        34        Al     tau(  34) = (   2.4970978   0.5029022   2.1714631  )
        35        Al     tau(  35) = (   2.5020987   1.5000000   2.1881964  )
        36        Al     tau(  36) = (   2.4970978   2.4970978   2.1714631  )
        37        O      tau(  37) = (   1.5000000   1.5000000   2.6497642  )

     number of k points=     6  Marzari-Vanderbilt smearing, width (Ry)=  0.0500
                       cart. coord. in units 2pi/alat
        k(    1) = (   0.0277778   0.0277778   0.0000000), wk =   0.2222222
        k(    2) = (   0.0277778   0.0833333   0.0000000), wk =   0.4444444
        k(    3) = (   0.0277778   0.1388889   0.0000000), wk =   0.4444444
        k(    4) = (   0.0833333   0.0833333   0.0000000), wk =   0.2222222
        k(    5) = (   0.0833333   0.1388889   0.0000000), wk =   0.4444444
        k(    6) = (   0.1388889   0.1388889   0.0000000), wk =   0.2222222

     Dense  grid:  1092149 G-vectors     FFT dimensions: (  96,  96, 250)

     Smooth grid:   386353 G-vectors     FFT dimensions: (  72,  72, 180)

     Estimated max dynamical RAM per process >     999.53 MB

     Estimated total dynamical RAM >      10.41 GB

     Atomic positions and unit cell read from directory:
     ./tmp/Al.save/


     The initial density is read from file :
     ./tmp/Al.save/charge-density


     negative rho (up, down):  5.439E-04 0.000E+00
     Starting wfcs are  148 atomic wfcs
     Checking if some PAW data can be deallocated... 

     total cpu time spent up to now is        9.9 secs

     Self-consistent Calculation

     iteration #  1     ecut=    40.00 Ry     beta= 0.50
     Davidson diagonalization with overlap
     c_bands:  3 eigenvalues not converged
     ethr =  1.00E-05,  avg # of iterations = 22.3

     negative rho (up, down):  4.190E-04 0.000E+00

     total cpu time spent up to now is       55.2 secs

     total energy              =   -1463.09371129 Ry
     estimated scf accuracy    <       0.00176903 Ry

     iteration #  2     ecut=    40.00 Ry     beta= 0.50
     Davidson diagonalization with overlap
     ethr =  1.55E-06,  avg # of iterations = 11.7

     negative rho (up, down):  1.784E-04 0.000E+00

     total cpu time spent up to now is       73.2 secs

     total energy              =   -1463.09369681 Ry
     estimated scf accuracy    <       0.00084423 Ry

     iteration #  3     ecut=    40.00 Ry     beta= 0.50
     Davidson diagonalization with overlap
     ethr =  7.41E-07,  avg # of iterations =  4.2

     negative rho (up, down):  2.014E-04 0.000E+00

     total cpu time spent up to now is       87.7 secs

     total energy              =   -1463.09383922 Ry
     estimated scf accuracy    <       0.00007400 Ry

     iteration #  4     ecut=    40.00 Ry     beta= 0.50
     Davidson diagonalization with overlap
     ethr =  6.49E-08,  avg # of iterations =  5.8

     negative rho (up, down):  2.118E-04 0.000E+00

     total cpu time spent up to now is      103.5 secs

     total energy              =   -1463.09385250 Ry
     estimated scf accuracy    <       0.00000921 Ry

     iteration #  5     ecut=    40.00 Ry     beta= 0.50
     Davidson diagonalization with overlap
     ethr =  8.08E-09,  avg # of iterations =  7.7

     negative rho (up, down):  2.062E-04 0.000E+00

     total cpu time spent up to now is      121.7 secs

     total energy              =   -1463.09385457 Ry
     estimated scf accuracy    <       0.00001484 Ry

     iteration #  6     ecut=    40.00 Ry     beta= 0.50
     Davidson diagonalization with overlap
     ethr =  8.08E-09,  avg # of iterations =  2.0

     negative rho (up, down):  2.502E-04 0.000E+00

     total cpu time spent up to now is      134.8 secs

     total energy              =   -1463.09385556 Ry
     estimated scf accuracy    <       0.00000449 Ry

     iteration #  7     ecut=    40.00 Ry     beta= 0.50
     Davidson diagonalization with overlap
     ethr =  3.94E-09,  avg # of iterations =  4.0

     negative rho (up, down):  4.012E-04 0.000E+00

     total cpu time spent up to now is      149.3 secs

     total energy              =   -1463.09385813 Ry
     estimated scf accuracy    <       0.00000066 Ry

     iteration #  8     ecut=    40.00 Ry     beta= 0.50
     Davidson diagonalization with overlap
     ethr =  5.82E-10,  avg # of iterations =  9.3

     negative rho (up, down):  4.699E-04 0.000E+00

     total cpu time spent up to now is      166.4 secs

     total energy              =   -1463.09385856 Ry
     estimated scf accuracy    <       0.00000013 Ry

     iteration #  9     ecut=    40.00 Ry     beta= 0.50
     Davidson diagonalization with overlap
     ethr =  1.17E-10,  avg # of iterations =  6.8

     negative rho (up, down):  4.907E-04 0.000E+00

     total cpu time spent up to now is      183.6 secs

     total energy              =   -1463.09385855 Ry
     estimated scf accuracy    <       0.00000041 Ry

     iteration # 10     ecut=    40.00 Ry     beta= 0.50
     Davidson diagonalization with overlap
     ethr =  1.17E-10,  avg # of iterations =  3.3

     negative rho (up, down):  5.434E-04 0.000E+00

     total cpu time spent up to now is      196.2 secs

     End of self-consistent calculation

          k = 0.0278 0.0278 0.0000 ( 48321 PWs)   bands (ev):

   -16.8131 -10.5749  -9.2508  -8.9125  -8.9077  -8.2526  -8.2451  -7.6132
    -7.6079  -7.2654  -7.1155  -6.9563  -6.9455  -6.6243  -6.5997  -5.9880
    -5.9629  -5.5468  -5.4638  -5.3437  -5.3424  -4.8984  -4.8235  -4.7114
    -4.3263  -3.9159  -3.4076  -3.3932  -3.3267  -3.3029  -2.8719  -2.8681
    -2.7929  -2.4130  -2.2921  -2.2777  -2.1725  -2.1358  -2.0861  -2.0600
    -1.9788  -1.9418  -1.8133  -1.7923  -1.6304  -1.4379  -1.1462  -1.0452
    -0.9136  -0.8624  -0.7108  -0.6687  -0.5849  -0.5267  -0.4916  -0.3904
    -0.2884  -0.2286   0.0170   0.0421   0.0819   0.2137   0.2865   0.3095
     0.3945   0.4588   0.6744   0.9201

          k = 0.0278 0.0833 0.0000 ( 48286 PWs)   bands (ev):

   -16.8131 -10.4633  -9.4630  -9.1408  -8.7998  -8.1556  -8.1381  -7.8109
    -7.5037  -7.4801  -7.1553  -7.0056  -6.8438  -6.5236  -6.2028  -6.0318
    -5.8787  -5.8553  -5.3903  -5.2156  -4.7598  -4.6063  -4.5595  -4.4577
    -4.2410  -4.1094  -3.9718  -3.8124  -3.3426  -3.3219  -3.2820  -3.0185
    -2.8364  -2.6276  -2.5065  -2.4451  -2.3881  -2.2435  -2.0935  -2.0284
    -1.9881  -1.9312  -1.8101  -1.7506  -1.6803  -1.3922  -1.2696  -1.2294
    -1.2078  -1.0892  -0.9969  -0.9297  -0.7613  -0.6813  -0.4613  -0.2731
    -0.1024   0.0137   0.0245   0.2689   0.3181   0.4438   0.5475   0.6369
     0.7123   0.8811   1.0294   1.0556

          k = 0.0278 0.1389 0.0000 ( 48332 PWs)   bands (ev):

   -16.8131 -10.2404  -9.9067  -8.9217  -8.5918  -8.5791  -8.2494  -7.9197
    -7.5913  -7.2845  -6.9628  -6.7908  -6.6365  -6.6075  -6.4507  -6.3028
    -5.6430  -5.3313  -5.1817  -5.0025  -4.8667  -4.5467  -4.3812  -4.3730
    -4.2446  -4.0668  -4.0223  -3.7697  -3.6831  -3.4515  -3.3189  -3.1399
    -3.0856  -2.8894  -2.7677  -2.6491  -2.5533  -2.3269  -2.2639  -2.2137
    -2.0085  -1.8543  -1.8128  -1.7747  -1.7439  -1.6281  -1.5328  -1.4841
    -1.4204  -1.1985  -1.0738  -0.8635  -0.6134  -0.5679  -0.3129  -0.2407
    -0.0387  -0.0267   0.1768   0.3628   0.4506   0.5448   0.6323   0.6717
     0.7574   1.0619   1.2277   1.4829

          k = 0.0833 0.0833 0.0000 ( 48259 PWs)   bands (ev):

   -16.8131 -10.3518  -9.3540  -9.3503  -9.0309  -8.3592  -8.0527  -8.0382
    -7.3783  -7.3674  -7.0709  -6.8888  -6.4085  -6.3826  -6.1059  -6.0863
    -5.9805  -5.8585  -5.1342  -5.1300  -4.9692  -4.4799  -4.4647  -4.4387
    -4.1514  -4.0409  -3.9932  -3.5333  -3.5045  -3.3183  -3.2710  -3.2450
    -3.2085  -3.1695  -3.1035  -3.1019  -2.5522  -2.2903  -2.2667  -2.2080
    -2.2040  -1.8500  -1.7887  -1.6731  -1.4491  -1.2621  -1.0528  -1.0086
    -0.9716  -0.8245  -0.7363  -0.7210  -0.7163  -0.6485  -0.5935  -0.3932
    -0.3152  -0.1702   0.0554   0.1298   0.3283   0.5714   0.6032   0.6156
     0.7739   0.8865   1.0572   1.1131

          k = 0.0833 0.1389 0.0000 ( 48265 PWs)   bands (ev):

   -16.8131 -10.1291  -9.7956  -9.1309  -8.8121  -8.7993  -8.4821  -7.8274
    -7.5012  -7.1550  -6.8288  -6.6841  -6.5016  -6.3524  -5.8803  -5.7097
    -5.5629  -5.5328  -5.5293  -5.3844  -5.2196  -4.5837  -4.2851  -4.2754
    -4.2312  -3.9502  -3.9243  -3.8270  -3.6581  -3.6096  -3.5135  -3.3488
    -3.2197  -3.0643  -3.0012  -2.8135  -2.7970  -2.6865  -2.5100  -2.4029
    -2.3393  -1.9591  -1.8184  -1.7614  -1.5463  -1.4641  -1.2832  -1.1090
    -1.0722  -0.7553  -0.6543  -0.6022  -0.4897  -0.4317  -0.4013  -0.3312
    -0.2559  -0.0130   0.0523   0.4016   0.4555   0.6801   0.7110   0.7576
     0.7909   0.9220   0.9878   1.1708

          k = 0.1389 0.1389 0.0000 ( 48221 PWs)   bands (ev):

   -16.8131  -9.9067  -9.5751  -9.5722  -9.2413  -8.5929  -8.2727  -8.2545
    -7.9357  -6.4744  -6.2933  -6.2798  -6.1975  -6.0850  -5.9733  -5.9495
    -5.7982  -5.3415  -5.3063  -5.0221  -5.0131  -5.0044  -4.9859  -4.6934
    -4.6883  -4.0766  -4.0582  -3.7975  -3.7226  -3.7214  -3.4970  -3.3509
    -3.1465  -3.0776  -2.9879  -2.8913  -2.7394  -2.7223  -2.4029  -2.3466
    -2.1602  -1.9907  -1.8357  -1.7372  -1.5955  -1.5842  -1.3301  -1.2130
    -1.2082  -1.0323  -0.9472  -0.9124  -0.6041  -0.3906  -0.1984  -0.0476
     0.2359   0.2680   0.3177   0.6012   0.6781   0.7226   0.7571   0.8048
     0.8750   0.9300   0.9609   1.0767

     the Fermi energy is    -0.0833 ev

!    total energy              =   -1463.09385863 Ry
     total all-electron energy =    -17633.080888 Ry
     estimated scf accuracy    <          7.4E-09 Ry
     smearing contrib. (-TS)   =       0.00423895 Ry
     internal energy E=F+TS    =   -1463.09809758 Ry

     The total energy is F=E-TS. E is the sum of the following terms:
     one-electron contribution =   -1629.77292805 Ry
     hartree contribution      =     843.60211659 Ry
     xc contribution           =     -98.47148540 Ry
     ewald contribution        =     679.48952451 Ry
     one-center paw contrib.   =   -1257.94532523 Ry

     convergence has been achieved in  10 iterations

     negative rho (up, down):  5.434E-04 0.000E+00

     Forces acting on atoms (cartesian axes, Ry/au):

     atom    1 type  1   force =     0.00000000    0.00000000   -0.00417757
     atom    2 type  1   force =     0.00000000    0.00040459   -0.00475421
     atom    3 type  1   force =     0.00000000   -0.00040459   -0.00475421
     atom    4 type  1   force =     0.00040459    0.00000000   -0.00475421
     atom    5 type  1   force =    -0.00020256   -0.00020256   -0.00355847
     atom    6 type  1   force =    -0.00020256    0.00020256   -0.00355847
     atom    7 type  1   force =    -0.00040459    0.00000000   -0.00475421
     atom    8 type  1   force =     0.00020256   -0.00020256   -0.00355847
     atom    9 type  1   force =     0.00020256    0.00020256   -0.00355847
     atom   10 type  1   force =    -0.00181441   -0.00181441    0.00658063
     atom   11 type  1   force =    -0.00056480    0.00000000    0.00683994
     atom   12 type  1   force =    -0.00181441    0.00181441    0.00658063
     atom   13 type  1   force =     0.00000000   -0.00056480    0.00683994
     atom   14 type  1   force =     0.00000000    0.00000000    0.00820752
     atom   15 type  1   force =     0.00000000    0.00056480    0.00683994
     atom   16 type  1   force =     0.00181441   -0.00181441    0.00658063
     atom   17 type  1   force =     0.00056480    0.00000000    0.00683994
     atom   18 type  1   force =     0.00181441    0.00181441    0.00658063
     atom   19 type  1   force =     0.00000000    0.00000000   -0.00200019
     atom   20 type  1   force =     0.00000000   -0.00023555   -0.00143900
     atom   21 type  1   force =     0.00000000    0.00023555   -0.00143900
     atom   22 type  1   force =    -0.00023555    0.00000000   -0.00143900
     atom   23 type  1   force =     0.00013401    0.00013401   -0.00108059
     atom   24 type  1   force =     0.00013401   -0.00013401   -0.00108059
     atom   25 type  1   force =     0.00023555    0.00000000   -0.00143900
     atom   26 type  1   force =    -0.00013401    0.00013401   -0.00108059
     atom   27 type  1   force =    -0.00013401   -0.00013401   -0.00108059
     atom   28 type  1   force =    -0.00036140   -0.00036140   -0.00138557
     atom   29 type  1   force =     0.00023988    0.00000000   -0.00150602
     atom   30 type  1   force =    -0.00036140    0.00036140   -0.00138557
     atom   31 type  1   force =     0.00000000    0.00023988   -0.00150602
     atom   32 type  1   force =     0.00000000    0.00000000   -0.00138190
     atom   33 type  1   force =     0.00000000   -0.00023988   -0.00150602
     atom   34 type  1   force =     0.00036140   -0.00036140   -0.00138557
     atom   35 type  1   force =    -0.00023988    0.00000000   -0.00150602
     atom   36 type  1   force =     0.00036140    0.00036140   -0.00138557
     atom   37 type  2   force =     0.00000000    0.00000000    0.00056525

     Total force =     0.006130     Total SCF correction =     0.000062

     BFGS Geometry Optimization
     Energy error            =      0.0E+00 Ry
     Gradient error          =      2.0E-03 Ry/Bohr

     number of scf cycles    =   1
     number of bfgs steps    =   0

     energy             new  =   -1463.0938586332 Ry

     new trust radius        =       0.0020001861 bohr
     new conv_thr            =       0.0000001000 Ry


ATOMIC_POSITIONS (alat)
Al               0.0000000000        0.0000000000        0.0000000000    0   0   0
Al               0.0000000000        0.9999999959        0.0000000000    0   0   0
Al               0.0000000000        1.9999999921        0.0000000000    0   0   0
Al               0.9999999959        0.0000000000        0.0000000000    0   0   0
Al               0.9999999959        0.9999999959        0.0000000000    0   0   0
Al               0.9999999959        1.9999999921        0.0000000000    0   0   0
Al               1.9999999921        0.0000000000        0.0000000000    0   0   0
Al               1.9999999921        0.9999999959        0.0000000000    0   0   0
Al               1.9999999921        1.9999999921        0.0000000000    0   0   0
Al               0.4999999980        0.4999999980        0.7071067662    0   0   0
Al               0.4999999980        1.4999999941        0.7071067662    0   0   0
Al               0.4999999980        2.4999999900        0.7071067662    0   0   0
Al               1.4999999941        0.4999999980        0.7071067662    0   0   0
Al               1.4999999941        1.4999999941        0.7071067662    0   0   0
Al               1.4999999941        2.4999999900        0.7071067662    0   0   0
Al               2.4999999900        0.4999999980        0.7071067662    0   0   0
Al               2.4999999900        1.4999999941        0.7071067662    0   0   0
Al               2.4999999900        2.4999999900        0.7071067662    0   0   0
Al               0.0000000000        0.0000000000        1.4427014173
Al               0.0000000000        1.0010247596        1.4409784240
Al               0.0000000000        1.9989752284        1.4409784240
Al               1.0010247596        0.0000000000        1.4409784240
Al               0.9908014348        0.9908014348        1.4321892118
Al               0.9908014348        2.0091985532        1.4321892118
Al               1.9989752284        0.0000000000        1.4409784240
Al               2.0091985532        0.9908014348        1.4321892118
Al               2.0091985532        2.0091985532        1.4321892118
Al               0.5028352196        0.5028352196        2.1712062687
Al               0.4979457801        1.4999999941        2.1879172221
Al               0.5028352196        2.4971647684        2.1712062687
Al               1.4999999941        0.4979457801        2.1879172221
Al               1.4999999941        1.4999999941        2.0613924210
Al               1.4999999941        2.5020542079        2.1879172221
Al               2.4971647684        0.5028352196        2.1712062687
Al               2.5020542079        1.4999999941        2.1879172221
Al               2.4971647684        2.4971647684        2.1712062687
O                1.4999999976        1.4999999976        2.6498690018    0   0   1



     Writing config-only to output data dir ./tmp/Al.save/ :
     XML data file
     NEW-OLD atomic charge density approx. for the potential

     negative rho (up, down):  5.439E-04 0.000E+00

     total cpu time spent up to now is      207.3 secs

     Self-consistent Calculation

     iteration #  1     ecut=    40.00 Ry     beta= 0.50
     Davidson diagonalization with overlap
     ethr =  1.00E-06,  avg # of iterations =  2.0

     Threshold (ethr) on eigenvalues was too large:
     Diagonalizing with lowered threshold

     Davidson diagonalization with overlap
     ethr =  1.23E-09,  avg # of iterations =  6.7

     negative rho (up, down):  5.458E-04 0.000E+00

     total cpu time spent up to now is      237.5 secs

     total energy              =   -1463.09389434 Ry
     estimated scf accuracy    <       0.00000674 Ry

     iteration #  2     ecut=    40.00 Ry     beta= 0.50
     Davidson diagonalization with overlap
     ethr =  5.91E-09,  avg # of iterations =  2.0

     negative rho (up, down):  5.463E-04 0.000E+00

     total cpu time spent up to now is      250.5 secs

     total energy              =   -1463.09389457 Ry
     estimated scf accuracy    <       0.00000135 Ry

     iteration #  3     ecut=    40.00 Ry     beta= 0.50
     Davidson diagonalization with overlap
     ethr =  1.19E-09,  avg # of iterations =  1.7

     negative rho (up, down):  5.460E-04 0.000E+00

     total cpu time spent up to now is      263.5 secs

     total energy              =   -1463.09389456 Ry
     estimated scf accuracy    <       0.00000035 Ry

     iteration #  4     ecut=    40.00 Ry     beta= 0.50
     Davidson diagonalization with overlap
     ethr =  3.08E-10,  avg # of iterations =  4.8

     negative rho (up, down):  5.433E-04 0.000E+00

     total cpu time spent up to now is      277.4 secs

     End of self-consistent calculation

          k = 0.0278 0.0278 0.0000 ( 48321 PWs)   bands (ev):

   -16.8096 -10.5759  -9.2509  -8.9136  -8.9086  -8.2537  -8.2459  -7.6130
    -7.6081  -7.2664  -7.1159  -6.9561  -6.9457  -6.6252  -6.6008  -5.9880
    -5.9639  -5.5470  -5.4643  -5.3438  -5.3424  -4.8985  -4.8240  -4.7114
    -4.3260  -3.9163  -3.4085  -3.3939  -3.3271  -3.3031  -2.8715  -2.8675
    -2.7926  -2.4127  -2.2912  -2.2772  -2.1724  -2.1367  -2.0872  -2.0597
    -1.9794  -1.9427  -1.8137  -1.7919  -1.6299  -1.4371  -1.1472  -1.0449
    -0.9137  -0.8623  -0.7106  -0.6688  -0.5849  -0.5264  -0.4914  -0.3913
    -0.2881  -0.2284   0.0169   0.0423   0.0821   0.2133   0.2860   0.3094
     0.3937   0.4580   0.6743   0.9201

          k = 0.0278 0.0833 0.0000 ( 48286 PWs)   bands (ev):

   -16.8096 -10.4643  -9.4640  -9.1409  -8.8008  -8.1558  -8.1390  -7.8119
    -7.5038  -7.4809  -7.1563  -7.0060  -6.8438  -6.5237  -6.2028  -6.0322
    -5.8787  -5.8563  -5.3906  -5.2166  -4.7601  -4.6063  -4.5605  -4.4580
    -4.2408  -4.1097  -3.9718  -3.8128  -3.3423  -3.3218  -3.2829  -3.0195
    -2.8359  -2.6275  -2.5067  -2.4449  -2.3886  -2.2428  -2.0930  -2.0290
    -1.9884  -1.9311  -1.8096  -1.7503  -1.6802  -1.3916  -1.2695  -1.2296
    -1.2086  -1.0891  -0.9966  -0.9294  -0.7622  -0.6813  -0.4611  -0.2728
    -0.1034   0.0137   0.0244   0.2686   0.3184   0.4438   0.5475   0.6373
     0.7122   0.8809   1.0290   1.0553

          k = 0.0278 0.1389 0.0000 ( 48332 PWs)   bands (ev):

   -16.8096 -10.2414  -9.9077  -8.9217  -8.5920  -8.5800  -8.2504  -7.9207
    -7.5923  -7.2846  -6.9628  -6.7912  -6.6367  -6.6084  -6.4511  -6.3028
    -5.6440  -5.3312  -5.1821  -5.0035  -4.8671  -4.5470  -4.3812  -4.3739
    -4.2448  -4.0676  -4.0222  -3.7695  -3.6829  -3.4524  -3.3191  -3.1399
    -3.0865  -2.8892  -2.7685  -2.6487  -2.5527  -2.3260  -2.2639  -2.2132
    -2.0080  -1.8542  -1.8134  -1.7745  -1.7438  -1.6277  -1.5337  -1.4840
    -1.4200  -1.1981  -1.0737  -0.8634  -0.6135  -0.5679  -0.3129  -0.2405
    -0.0387  -0.0268   0.1770   0.3626   0.4509   0.5450   0.6313   0.6707
     0.7574   1.0621   1.2278   1.4827

          k = 0.0833 0.0833 0.0000 ( 48259 PWs)   bands (ev):

   -16.8096 -10.3528  -9.3552  -9.3512  -9.0309  -8.3602  -8.0525  -8.0385
    -7.3794  -7.3683  -7.0709  -6.8893  -6.4094  -6.3837  -6.1060  -6.0861
    -5.9807  -5.8592  -5.1341  -5.1301  -4.9696  -4.4809  -4.4656  -4.4397
    -4.1511  -4.0410  -3.9935  -3.5343  -3.5053  -3.3176  -3.2709  -3.2448
    -3.2085  -3.1694  -3.1037  -3.1021  -2.5513  -2.2903  -2.2666  -2.2072
    -2.2048  -1.8487  -1.7883  -1.6722  -1.4491  -1.2622  -1.0530  -1.0085
    -0.9714  -0.8251  -0.7366  -0.7208  -0.7169  -0.6496  -0.5935  -0.3935
    -0.3162  -0.1701   0.0555   0.1300   0.3285   0.5714   0.6032   0.6154
     0.7744   0.8866   1.0568   1.1125

          k = 0.0833 0.1389 0.0000 ( 48265 PWs)   bands (ev):

   -16.8096 -10.1301  -9.7966  -9.1319  -8.8122  -8.8002  -8.4822  -7.8274
    -7.5012  -7.1560  -6.8298  -6.6845  -6.5026  -6.3527  -5.8804  -5.7101
    -5.5632  -5.5337  -5.5300  -5.3847  -5.2196  -4.5847  -4.2851  -4.2755
    -4.2319  -3.9501  -3.9251  -3.8272  -3.6591  -3.6094  -3.5138  -3.3486
    -3.2198  -3.0639  -3.0012  -2.8133  -2.7976  -2.6865  -2.5097  -2.4025
    -2.3393  -1.9586  -1.8178  -1.7606  -1.5460  -1.4639  -1.2830  -1.1090
    -1.0721  -0.7551  -0.6543  -0.6020  -0.4905  -0.4325  -0.4018  -0.3312
    -0.2566  -0.0128   0.0524   0.4008   0.4552   0.6800   0.7110   0.7570
     0.7907   0.9221   0.9877   1.1711

          k = 0.1389 0.1389 0.0000 ( 48221 PWs)   bands (ev):

   -16.8096  -9.9077  -9.5763  -9.5731  -9.2423  -8.5929  -8.2726  -8.2548
    -7.9358  -6.4748  -6.2945  -6.2806  -6.1977  -6.0856  -5.9742  -5.9506
    -5.7986  -5.3424  -5.3073  -5.0225  -5.0139  -5.0044  -4.9865  -4.6934
    -4.6882  -4.0764  -4.0582  -3.7973  -3.7225  -3.7211  -3.4964  -3.3507
    -3.1461  -3.0776  -2.9879  -2.8922  -2.7394  -2.7226  -2.4038  -2.3460
    -2.1600  -1.9901  -1.8359  -1.7374  -1.5954  -1.5838  -1.3300  -1.2128
    -1.2081  -1.0331  -0.9470  -0.9119  -0.6046  -0.3906  -0.1978  -0.0473
     0.2361   0.2684   0.3176   0.6012   0.6777   0.7219   0.7571   0.8042
     0.8739   0.9304   0.9607   1.0766

     the Fermi energy is    -0.0834 ev

!    total energy              =   -1463.09389461 Ry
     total all-electron energy =    -17633.080924 Ry
     estimated scf accuracy    <       0.00000005 Ry
     smearing contrib. (-TS)   =       0.00428785 Ry
     internal energy E=F+TS    =   -1463.09818247 Ry

     The total energy is F=E-TS. E is the sum of the following terms:
     one-electron contribution =   -1629.95807303 Ry
     hartree contribution      =     843.69109088 Ry
     xc contribution           =     -98.47214675 Ry
     ewald contribution        =     679.58642023 Ry
     one-center paw contrib.   =   -1257.94547379 Ry

     convergence has been achieved in   4 iterations

     negative rho (up, down):  5.433E-04 0.000E+00

     Forces acting on atoms (cartesian axes, Ry/au):

     atom    1 type  1   force =     0.00000000    0.00000000   -0.00417743
     atom    2 type  1   force =     0.00000000    0.00040194   -0.00475231
     atom    3 type  1   force =     0.00000000   -0.00040194   -0.00475231
     atom    4 type  1   force =     0.00040194    0.00000000   -0.00475231
     atom    5 type  1   force =    -0.00020310   -0.00020310   -0.00355638
     atom    6 type  1   force =    -0.00020310    0.00020310   -0.00355638
     atom    7 type  1   force =    -0.00040194    0.00000000   -0.00475231
     atom    8 type  1   force =     0.00020310   -0.00020310   -0.00355638
     atom    9 type  1   force =     0.00020310    0.00020310   -0.00355638
     atom   10 type  1   force =    -0.00180921   -0.00180921    0.00651828
     atom   11 type  1   force =    -0.00056194    0.00000000    0.00679179
     atom   12 type  1   force =    -0.00180921    0.00180921    0.00651828
     atom   13 type  1   force =     0.00000000   -0.00056194    0.00679179
     atom   14 type  1   force =     0.00000000    0.00000000    0.00815729
     atom   15 type  1   force =     0.00000000    0.00056194    0.00679179
     atom   16 type  1   force =     0.00180921   -0.00180921    0.00651828
     atom   17 type  1   force =     0.00056194    0.00000000    0.00679179
     atom   18 type  1   force =     0.00180921    0.00180921    0.00651828
     atom   19 type  1   force =     0.00000000    0.00000000   -0.00192575
     atom   20 type  1   force =     0.00000000   -0.00020808   -0.00137606
     atom   21 type  1   force =     0.00000000    0.00020808   -0.00137606
     atom   22 type  1   force =    -0.00020808    0.00000000   -0.00137606
     atom   23 type  1   force =     0.00011435    0.00011435   -0.00104553
     atom   24 type  1   force =     0.00011435   -0.00011435   -0.00104553
     atom   25 type  1   force =     0.00020808    0.00000000   -0.00137606
     atom   26 type  1   force =    -0.00011435    0.00011435   -0.00104553
     atom   27 type  1   force =    -0.00011435   -0.00011435   -0.00104553
     atom   28 type  1   force =    -0.00034003   -0.00034003   -0.00138663
     atom   29 type  1   force =     0.00022085    0.00000000   -0.00149050
     atom   30 type  1   force =    -0.00034003    0.00034003   -0.00138663
     atom   31 type  1   force =     0.00000000    0.00022085   -0.00149050
     atom   32 type  1   force =     0.00000000    0.00000000   -0.00024920
     atom   33 type  1   force =     0.00000000   -0.00022085   -0.00149050
     atom   34 type  1   force =     0.00034003   -0.00034003   -0.00138663
     atom   35 type  1   force =    -0.00022085    0.00000000   -0.00149050
     atom   36 type  1   force =     0.00034003    0.00034003   -0.00138663
     atom   37 type  2   force =     0.00000000    0.00000000   -0.00061554

     Total force =     0.005837     Total SCF correction =     0.000223
     Energy error            =      3.6E-05 Ry
     Gradient error          =      1.9E-03 Ry/Bohr

     number of scf cycles    =   2
     number of bfgs steps    =   1

     energy             old  =   -1463.0938586332 Ry
     energy             new  =   -1463.0938946144 Ry

     CASE: energy            _new < energy            _old


     WARNING: bfgs curvature condition failed, Theta= 0.872
     new trust radius        =       0.0022002047 bohr
     new conv_thr            =       0.0000000010 Ry


ATOMIC_POSITIONS (alat)
Al               0.0000000000        0.0000000000        0.0000000000    0   0   0
Al               0.0000000000        0.9999999959        0.0000000000    0   0   0
Al               0.0000000000        1.9999999921        0.0000000000    0   0   0
Al               0.9999999959        0.0000000000        0.0000000000    0   0   0
Al               0.9999999959        0.9999999959        0.0000000000    0   0   0
Al               0.9999999959        1.9999999921        0.0000000000    0   0   0
Al               1.9999999921        0.0000000000        0.0000000000    0   0   0
Al               1.9999999921        0.9999999959        0.0000000000    0   0   0
Al               1.9999999921        1.9999999921        0.0000000000    0   0   0
Al               0.4999999980        0.4999999980        0.7071067662    0   0   0
Al               0.4999999980        1.4999999941        0.7071067662    0   0   0
Al               0.4999999980        2.4999999900        0.7071067662    0   0   0
Al               1.4999999941        0.4999999980        0.7071067662    0   0   0
Al               1.4999999941        1.4999999941        0.7071067662    0   0   0
Al               1.4999999941        2.4999999900        0.7071067662    0   0   0
Al               2.4999999900        0.4999999980        0.7071067662    0   0   0
Al               2.4999999900        1.4999999941        0.7071067662    0   0   0
Al               2.4999999900        2.4999999900        0.7071067662    0   0   0
Al               0.0000000000        0.0000000000        1.4422935499
Al               0.0000000000        1.0009792947        1.4406862798
Al               0.0000000000        1.9990206933        1.4406862798
Al               1.0009792947        0.0000000000        1.4406862798
Al               0.9908267477        0.9908267477        1.4319681565
Al               0.9908267477        2.0091732403        1.4319681565
Al               1.9990206933        0.0000000000        1.4406862798
Al               2.0091732403        0.9908267477        1.4319681565
Al               2.0091732403        2.0091732403        1.4319681565
Al               0.5027626114        0.5027626114        2.1709165084
Al               0.4979933088        1.4999999941        2.1876045616
Al               0.5027626114        2.4972373766        2.1709165084
Al               1.4999999941        0.4979933088        2.1876045616
Al               1.4999999941        1.4999999941        2.0612590134
Al               1.4999999941        2.5020066792        2.1876045616
Al               2.4972373766        0.5027626114        2.1709165084
Al               2.5020066792        1.4999999941        2.1876045616
Al               2.4972373766        2.4972373766        2.1709165084
O                1.4999999976        1.4999999976        2.6498251119    0   0   1



     Writing config-only to output data dir ./tmp/Al.save/ :
     XML data file
     NEW-OLD atomic charge density approx. for the potential

     negative rho (up, down):  5.440E-04 0.000E+00

     total cpu time spent up to now is      288.5 secs

     Self-consistent Calculation

     iteration #  1     ecut=    40.00 Ry     beta= 0.50
     Davidson diagonalization with overlap
     ethr =  1.00E-06,  avg # of iterations =  2.0

     Threshold (ethr) on eigenvalues was too large:
     Diagonalizing with lowered threshold

     Davidson diagonalization with overlap
     ethr =  9.05E-10,  avg # of iterations = 10.2

     negative rho (up, down):  5.391E-04 0.000E+00

     total cpu time spent up to now is      320.7 secs

     total energy              =   -1463.09393261 Ry
     estimated scf accuracy    <       0.00000994 Ry

     iteration #  2     ecut=    40.00 Ry     beta= 0.50
     Davidson diagonalization with overlap
     ethr =  8.72E-09,  avg # of iterations =  1.0

     negative rho (up, down):  5.281E-04 0.000E+00

     total cpu time spent up to now is      333.0 secs

     total energy              =   -1463.09393203 Ry
     estimated scf accuracy    <       0.00000365 Ry

     iteration #  3     ecut=    40.00 Ry     beta= 0.50
     Davidson diagonalization with overlap
     ethr =  3.20E-09,  avg # of iterations =  3.0

     negative rho (up, down):  5.271E-04 0.000E+00

     total cpu time spent up to now is      346.8 secs

     total energy              =   -1463.09393252 Ry
     estimated scf accuracy    <       0.00000004 Ry

     iteration #  4     ecut=    40.00 Ry     beta= 0.50
     Davidson diagonalization with overlap
     ethr =  3.93E-11,  avg # of iterations =  9.5

     negative rho (up, down):  5.290E-04 0.000E+00

     total cpu time spent up to now is      368.7 secs

     total energy              =   -1463.09393253 Ry
     estimated scf accuracy    <       0.00000023 Ry

     iteration #  5     ecut=    40.00 Ry     beta= 0.50
     Davidson diagonalization with overlap
     ethr =  3.93E-11,  avg # of iterations =  4.2

     negative rho (up, down):  5.303E-04 0.000E+00

     total cpu time spent up to now is      384.2 secs

     total energy              =   -1463.09393254 Ry
     estimated scf accuracy    <          5.6E-09 Ry

     iteration #  6     ecut=    40.00 Ry     beta= 0.50
     Davidson diagonalization with overlap
     ethr =  4.92E-12,  avg # of iterations =  6.0

     negative rho (up, down):  5.307E-04 0.000E+00

     total cpu time spent up to now is      401.0 secs

     total energy              =   -1463.09393254 Ry
     estimated scf accuracy    <       0.00000002 Ry

     iteration #  7     ecut=    40.00 Ry     beta= 0.50
     Davidson diagonalization with overlap
     ethr =  4.92E-12,  avg # of iterations =  1.0

     negative rho (up, down):  5.361E-04 0.000E+00

     total cpu time spent up to now is      413.5 secs

     total energy              =   -1463.09393254 Ry
     estimated scf accuracy    <       0.00000002 Ry

     iteration #  8     ecut=    40.00 Ry     beta= 0.50
     Davidson diagonalization with overlap
     ethr =  4.92E-12,  avg # of iterations =  2.5

     negative rho (up, down):  5.433E-04 0.000E+00

     total cpu time spent up to now is      425.7 secs

     End of self-consistent calculation

          k = 0.0278 0.0278 0.0000 ( 48321 PWs)   bands (ev):

   -16.8090 -10.5775  -9.2511  -8.9153  -8.9101  -8.2554  -8.2474  -7.6131
    -7.6085  -7.2680  -7.1165  -6.9562  -6.9462  -6.6267  -6.6025  -5.9883
    -5.9655  -5.5475  -5.4651  -5.3442  -5.3425  -4.8990  -4.8250  -4.7116
    -4.3258  -3.9170  -3.4099  -3.3952  -3.3281  -3.3037  -2.8715  -2.8671
    -2.7930  -2.4128  -2.2908  -2.2772  -2.1725  -2.1380  -2.0888  -2.0596
    -1.9808  -1.9441  -1.8149  -1.7923  -1.6303  -1.4370  -1.1488  -1.0447
    -0.9140  -0.8625  -0.7107  -0.6691  -0.5851  -0.5261  -0.4914  -0.3927
    -0.2880  -0.2285   0.0165   0.0423   0.0821   0.2126   0.2850   0.3090
     0.3924   0.4566   0.6739   0.9199

          k = 0.0278 0.0833 0.0000 ( 48286 PWs)   bands (ev):

   -16.8090 -10.4659  -9.4655  -9.1411  -8.8024  -8.1562  -8.1404  -7.8134
    -7.5043  -7.4823  -7.1579  -7.0067  -6.8441  -6.5239  -6.2031  -6.0328
    -5.8790  -5.8579  -5.3913  -5.2182  -4.7608  -4.6065  -4.5620  -4.4585
    -4.2408  -4.1103  -3.9720  -3.8135  -3.3423  -3.3219  -3.2842  -3.0210
    -2.8359  -2.6279  -2.5077  -2.4456  -2.3897  -2.2430  -2.0930  -2.0299
    -1.9889  -1.9312  -1.8096  -1.7505  -1.6802  -1.3917  -1.2697  -1.2301
    -1.2100  -1.0891  -0.9966  -0.9294  -0.7636  -0.6817  -0.4613  -0.2728
    -0.1049   0.0134   0.0241   0.2682   0.3186   0.4436   0.5473   0.6375
     0.7120   0.8805   1.0282   1.0547

          k = 0.0278 0.1389 0.0000 ( 48332 PWs)   bands (ev):

   -16.8089 -10.2430  -9.9093  -8.9220  -8.5923  -8.5815  -8.2520  -7.9223
    -7.5939  -7.2848  -6.9630  -6.7919  -6.6371  -6.6098  -6.4517  -6.3031
    -5.6456  -5.3314  -5.1828  -5.0051  -4.8677  -4.5477  -4.3814  -4.3755
    -4.2454  -4.0690  -4.0223  -3.7697  -3.6828  -3.4540  -3.3196  -3.1401
    -3.0879  -2.8895  -2.7699  -2.6487  -2.5528  -2.3260  -2.2641  -2.2133
    -2.0080  -1.8546  -1.8146  -1.7746  -1.7439  -1.6278  -1.5351  -1.4840
    -1.4201  -1.1984  -1.0740  -0.8637  -0.6139  -0.5682  -0.3130  -0.2406
    -0.0389  -0.0270   0.1771   0.3622   0.4510   0.5450   0.6297   0.6692
     0.7571   1.0622   1.2277   1.4822

          k = 0.0833 0.0833 0.0000 ( 48259 PWs)   bands (ev):

   -16.8089 -10.3544  -9.3569  -9.3526  -9.0312  -8.3618  -8.0526  -8.0389
    -7.3811  -7.3698  -7.0711  -6.8900  -6.4109  -6.3853  -6.1064  -6.0862
    -5.9812  -5.8602  -5.1343  -5.1305  -4.9702  -4.4825  -4.4671  -4.4414
    -4.1510  -4.0415  -3.9942  -3.5359  -3.5068  -3.3173  -3.2711  -3.2449
    -3.2087  -3.1694  -3.1042  -3.1027  -2.5513  -2.2905  -2.2667  -2.2072
    -2.2062  -1.8487  -1.7881  -1.6723  -1.4492  -1.2626  -1.0535  -1.0085
    -0.9714  -0.8261  -0.7372  -0.7208  -0.7180  -0.6513  -0.5940  -0.3942
    -0.3177  -0.1703   0.0553   0.1299   0.3283   0.5713   0.6030   0.6150
     0.7747   0.8864   1.0560   1.1117

          k = 0.0833 0.1389 0.0000 ( 48265 PWs)   bands (ev):

   -16.8089 -10.1317  -9.7982  -9.1335  -8.8125  -8.8017  -8.4824  -7.8277
    -7.5014  -7.1576  -6.8314  -6.6852  -6.5042  -6.3534  -5.8806  -5.7109
    -5.5639  -5.5353  -5.5313  -5.3854  -5.2198  -4.5863  -4.2854  -4.2760
    -4.2331  -3.9502  -3.9263  -3.8278  -3.6605  -3.6093  -3.5145  -3.3488
    -3.2204  -3.0639  -3.0012  -2.8136  -2.7987  -2.6866  -2.5099  -2.4028
    -2.3398  -1.9588  -1.8181  -1.7608  -1.5459  -1.4640  -1.2831  -1.1094
    -1.0723  -0.7551  -0.6547  -0.6020  -0.4920  -0.4337  -0.4027  -0.3315
    -0.2577  -0.0128   0.0522   0.3995   0.4546   0.6796   0.7109   0.7561
     0.7903   0.9219   0.9874   1.1711

          k = 0.1389 0.1389 0.0000 ( 48221 PWs)   bands (ev):

   -16.8089  -9.9093  -9.5780  -9.5745  -9.2439  -8.5932  -8.2727  -8.2552
    -7.9360  -6.4755  -6.2962  -6.2821  -6.1982  -6.0865  -5.9758  -5.9523
    -5.7993  -5.3439  -5.3090  -5.0234  -5.0151  -5.0049  -4.9876  -4.6937
    -4.6883  -4.0765  -4.0586  -3.7975  -3.7225  -3.7210  -3.4959  -3.3507
    -3.1461  -3.0781  -2.9884  -2.8937  -2.7401  -2.7233  -2.4053  -2.3461
    -2.1605  -1.9904  -1.8365  -1.7380  -1.5956  -1.5841  -1.3302  -1.2131
    -1.2081  -1.0344  -0.9470  -0.9118  -0.6057  -0.3909  -0.1974  -0.0472
     0.2361   0.2686   0.3172   0.6011   0.6769   0.7209   0.7569   0.8033
     0.8722   0.9307   0.9602   1.0762

     the Fermi energy is    -0.0839 ev

!    total energy              =   -1463.09393254 Ry
     total all-electron energy =    -17633.080962 Ry
     estimated scf accuracy    <          7.4E-10 Ry
     smearing contrib. (-TS)   =       0.00433199 Ry
     internal energy E=F+TS    =   -1463.09826453 Ry

     The total energy is F=E-TS. E is the sum of the following terms:
     one-electron contribution =   -1630.20321354 Ry
     hartree contribution      =     843.81578812 Ry
     xc contribution           =     -98.47386971 Ry
     ewald contribution        =     679.70872171 Ry
     one-center paw contrib.   =   -1257.94569112 Ry

     convergence has been achieved in   8 iterations

     negative rho (up, down):  5.433E-04 0.000E+00

     Forces acting on atoms (cartesian axes, Ry/au):

     atom    1 type  1   force =     0.00000000    0.00000000   -0.00418290
     atom    2 type  1   force =     0.00000000    0.00040051   -0.00475780
     atom    3 type  1   force =     0.00000000   -0.00040051   -0.00475780
     atom    4 type  1   force =     0.00040051    0.00000000   -0.00475780
     atom    5 type  1   force =    -0.00020270   -0.00020270   -0.00356070
     atom    6 type  1   force =    -0.00020270    0.00020270   -0.00356070
     atom    7 type  1   force =    -0.00040051    0.00000000   -0.00475780
     atom    8 type  1   force =     0.00020270   -0.00020270   -0.00356070
     atom    9 type  1   force =     0.00020270    0.00020270   -0.00356070
     atom   10 type  1   force =    -0.00180358   -0.00180358    0.00644518
     atom   11 type  1   force =    -0.00055975    0.00000000    0.00673317
     atom   12 type  1   force =    -0.00180358    0.00180358    0.00644518
     atom   13 type  1   force =     0.00000000   -0.00055975    0.00673317
     atom   14 type  1   force =     0.00000000    0.00000000    0.00810034
     atom   15 type  1   force =     0.00000000    0.00055975    0.00673317
     atom   16 type  1   force =     0.00180358   -0.00180358    0.00644518
     atom   17 type  1   force =     0.00055975    0.00000000    0.00673317
     atom   18 type  1   force =     0.00180358    0.00180358    0.00644518
     atom   19 type  1   force =     0.00000000    0.00000000   -0.00184648
     atom   20 type  1   force =     0.00000000   -0.00017857   -0.00130762
     atom   21 type  1   force =     0.00000000    0.00017857   -0.00130762
     atom   22 type  1   force =    -0.00017857    0.00000000   -0.00130762
     atom   23 type  1   force =     0.00010766    0.00010766   -0.00099089
     atom   24 type  1   force =     0.00010766   -0.00010766   -0.00099089
     atom   25 type  1   force =     0.00017857    0.00000000   -0.00130762
     atom   26 type  1   force =    -0.00010766    0.00010766   -0.00099089
     atom   27 type  1   force =    -0.00010766   -0.00010766   -0.00099089
     atom   28 type  1   force =    -0.00031492   -0.00031492   -0.00137982
     atom   29 type  1   force =     0.00018597    0.00000000   -0.00147724
     atom   30 type  1   force =    -0.00031492    0.00031492   -0.00137982
     atom   31 type  1   force =     0.00000000    0.00018597   -0.00147724
     atom   32 type  1   force =     0.00000000    0.00000000    0.00005112
     atom   33 type  1   force =     0.00000000   -0.00018597   -0.00147724
     atom   34 type  1   force =     0.00031492   -0.00031492   -0.00137982
     atom   35 type  1   force =    -0.00018597    0.00000000   -0.00147724
     atom   36 type  1   force =     0.00031492    0.00031492   -0.00137982
     atom   37 type  2   force =     0.00000000    0.00000000   -0.00093921

     Total force =     0.005706     Total SCF correction =     0.000034
     Energy error            =      3.8E-05 Ry
     Gradient error          =      1.8E-03 Ry/Bohr

     number of scf cycles    =   3
     number of bfgs steps    =   2

     energy             old  =   -1463.0938946144 Ry
     energy             new  =   -1463.0939325366 Ry

     CASE: energy            _new < energy            _old

     new trust radius        =       0.0033003071 bohr
     new conv_thr            =       0.0000000010 Ry


ATOMIC_POSITIONS (alat)
Al               0.0000000000        0.0000000000        0.0000000000    0   0   0
Al               0.0000000000        0.9999999959        0.0000000000    0   0   0
Al               0.0000000000        1.9999999921        0.0000000000    0   0   0
Al               0.9999999959        0.0000000000        0.0000000000    0   0   0
Al               0.9999999959        0.9999999959        0.0000000000    0   0   0
Al               0.9999999959        1.9999999921        0.0000000000    0   0   0
Al               1.9999999921        0.0000000000        0.0000000000    0   0   0
Al               1.9999999921        0.9999999959        0.0000000000    0   0   0
Al               1.9999999921        1.9999999921        0.0000000000    0   0   0
Al               0.4999999980        0.4999999980        0.7071067662    0   0   0
Al               0.4999999980        1.4999999941        0.7071067662    0   0   0
Al               0.4999999980        2.4999999900        0.7071067662    0   0   0
Al               1.4999999941        0.4999999980        0.7071067662    0   0   0
Al               1.4999999941        1.4999999941        0.7071067662    0   0   0
Al               1.4999999941        2.4999999900        0.7071067662    0   0   0
Al               2.4999999900        0.4999999980        0.7071067662    0   0   0
Al               2.4999999900        1.4999999941        0.7071067662    0   0   0
Al               2.4999999900        2.4999999900        0.7071067662    0   0   0
Al               0.0000000000        0.0000000000        1.4416817488
Al               0.0000000000        1.0009178398        1.4402519033
Al               0.0000000000        1.9990821482        1.4402519033
Al               1.0009178398        0.0000000000        1.4402519033
Al               0.9908645452        0.9908645452        1.4316408715
Al               0.9908645452        2.0091354428        1.4316408715
Al               1.9990821482        0.0000000000        1.4402519033
Al               2.0091354428        0.9908645452        1.4316408715
Al               2.0091354428        2.0091354428        1.4316408715
Al               0.5026573515        0.5026573515        2.1704659588
Al               0.4980558268        1.4999999941        2.1871199899
Al               0.5026573515        2.4973426365        2.1704659588
Al               1.4999999941        0.4980558268        2.1871199899
Al               1.4999999941        1.4999999941        2.0611224655
Al               1.4999999941        2.5019441612        2.1871199899
Al               2.4973426365        0.5026573515        2.1704659588
Al               2.5019441612        1.4999999941        2.1871199899
Al               2.4973426365        2.4973426365        2.1704659588
O                1.4999999976        1.4999999976        2.6496776672    0   0   1



     Writing config-only to output data dir ./tmp/Al.save/ :
     XML data file
     NEW-OLD atomic charge density approx. for the potential

     negative rho (up, down):  5.445E-04 0.000E+00

     total cpu time spent up to now is      436.6 secs

     Self-consistent Calculation

     iteration #  1     ecut=    40.00 Ry     beta= 0.50
     Davidson diagonalization with overlap
     ethr =  1.00E-06,  avg # of iterations =  2.0

     Threshold (ethr) on eigenvalues was too large:
     Diagonalizing with lowered threshold

     Davidson diagonalization with overlap
     ethr =  1.98E-09,  avg # of iterations =  7.2

     negative rho (up, down):  5.483E-04 0.000E+00

     total cpu time spent up to now is      467.6 secs

     total energy              =   -1463.09398829 Ry
     estimated scf accuracy    <       0.00000475 Ry

     iteration #  2     ecut=    40.00 Ry     beta= 0.50
     Davidson diagonalization with overlap
     ethr =  4.16E-09,  avg # of iterations =  1.0

     negative rho (up, down):  5.514E-04 0.000E+00

     total cpu time spent up to now is      480.2 secs

     total energy              =   -1463.09398791 Ry
     estimated scf accuracy    <       0.00000199 Ry

     iteration #  3     ecut=    40.00 Ry     beta= 0.50
     Davidson diagonalization with overlap
     ethr =  1.75E-09,  avg # of iterations =  3.8

     negative rho (up, down):  5.492E-04 0.000E+00

     total cpu time spent up to now is      495.3 secs

     total energy              =   -1463.09398823 Ry
     estimated scf accuracy    <       0.00000015 Ry

     iteration #  4     ecut=    40.00 Ry     beta= 0.50
     Davidson diagonalization with overlap
     ethr =  1.33E-10,  avg # of iterations =  6.7

     negative rho (up, down):  5.493E-04 0.000E+00

     total cpu time spent up to now is      511.3 secs

     total energy              =   -1463.09398825 Ry
     estimated scf accuracy    <       0.00000006 Ry

     iteration #  5     ecut=    40.00 Ry     beta= 0.50
     Davidson diagonalization with overlap
     ethr =  5.08E-11,  avg # of iterations =  3.2

     negative rho (up, down):  5.479E-04 0.000E+00

     total cpu time spent up to now is      524.5 secs

     total energy              =   -1463.09398825 Ry
     estimated scf accuracy    <       0.00000008 Ry

     iteration #  6     ecut=    40.00 Ry     beta= 0.50
     Davidson diagonalization with overlap
     ethr =  5.08E-11,  avg # of iterations =  1.7

     negative rho (up, down):  5.470E-04 0.000E+00

     total cpu time spent up to now is      537.8 secs

     total energy              =   -1463.09398824 Ry
     estimated scf accuracy    <       0.00000003 Ry

     iteration #  7     ecut=    40.00 Ry     beta= 0.50
     Davidson diagonalization with overlap
     ethr =  2.97E-11,  avg # of iterations =  2.0

     negative rho (up, down):  5.470E-04 0.000E+00

     total cpu time spent up to now is      550.6 secs

     total energy              =   -1463.09398825 Ry
     estimated scf accuracy    <       0.00000001 Ry

     iteration #  8     ecut=    40.00 Ry     beta= 0.50
     Davidson diagonalization with overlap
     ethr =  1.13E-11,  avg # of iterations =  3.5

     negative rho (up, down):  5.464E-04 0.000E+00

     total cpu time spent up to now is      564.5 secs

     total energy              =   -1463.09398825 Ry
     estimated scf accuracy    <          9.0E-09 Ry

     iteration #  9     ecut=    40.00 Ry     beta= 0.50
     Davidson diagonalization with overlap
     ethr =  7.88E-12,  avg # of iterations =  6.0

     negative rho (up, down):  5.434E-04 0.000E+00

     total cpu time spent up to now is      577.8 secs

     End of self-consistent calculation

          k = 0.0278 0.0278 0.0000 ( 48321 PWs)   bands (ev):

   -16.8090 -10.5794  -9.2513  -8.9174  -8.9119  -8.2575  -8.2492  -7.6130
    -7.6089  -7.2699  -7.1172  -6.9561  -6.9466  -6.6285  -6.6045  -5.9885
    -5.9674  -5.5479  -5.4660  -5.3445  -5.3425  -4.8994  -4.8261  -4.7118
    -4.3252  -3.9177  -3.4117  -3.3969  -3.3294  -3.3044  -2.8714  -2.8664
    -2.7935  -2.4127  -2.2903  -2.2772  -2.1724  -2.1396  -2.0907  -2.0592
    -1.9824  -1.9460  -1.8164  -1.7927  -1.6310  -1.4369  -1.1508  -1.0444
    -0.9143  -0.8624  -0.7106  -0.6693  -0.5851  -0.5255  -0.4911  -0.3945
    -0.2878  -0.2284   0.0162   0.0426   0.0825   0.2117   0.2840   0.3088
     0.3908   0.4550   0.6736   0.9198

          k = 0.0278 0.0833 0.0000 ( 48286 PWs)   bands (ev):

   -16.8090 -10.4679  -9.4675  -9.1413  -8.8043  -8.1565  -8.1421  -7.8154
    -7.5047  -7.4839  -7.1599  -7.0074  -6.8442  -6.5241  -6.2032  -6.0335
    -5.8792  -5.8598  -5.3921  -5.2202  -4.7615  -4.6067  -4.5639  -4.4591
    -4.2405  -4.1109  -3.9721  -3.8143  -3.3423  -3.3217  -3.2858  -3.0230
    -2.8358  -2.6282  -2.5091  -2.4466  -2.3911  -2.2434  -2.0930  -2.0310
    -1.9894  -1.9311  -1.8095  -1.7506  -1.6801  -1.3916  -1.2698  -1.2306
    -1.2116  -1.0890  -0.9964  -0.9292  -0.7654  -0.6821  -0.4613  -0.2724
    -0.1068   0.0132   0.0239   0.2678   0.3191   0.4435   0.5472   0.6381
     0.7118   0.8802   1.0274   1.0541

          k = 0.0278 0.1389 0.0000 ( 48332 PWs)   bands (ev):

   -16.8089 -10.2450  -9.9112  -8.9221  -8.5927  -8.5832  -8.2539  -7.9242
    -7.5959  -7.2849  -6.9631  -6.7927  -6.6375  -6.6115  -6.4524  -6.3033
    -5.6475  -5.3315  -5.1835  -5.0070  -4.8684  -4.5485  -4.3815  -4.3774
    -4.2460  -4.0707  -4.0221  -3.7696  -3.6824  -3.4559  -3.3203  -3.1403
    -3.0898  -2.8899  -2.7716  -2.6486  -2.5530  -2.3258  -2.2643  -2.2134
    -2.0080  -1.8549  -1.8159  -1.7744  -1.7439  -1.6278  -1.5369  -1.4838
    -1.4201  -1.1987  -1.0743  -0.8639  -0.6142  -0.5684  -0.3131  -0.2404
    -0.0390  -0.0271   0.1774   0.3618   0.4514   0.5452   0.6279   0.6674
     0.7570   1.0624   1.2278   1.4818

          k = 0.0833 0.0833 0.0000 ( 48259 PWs)   bands (ev):

   -16.8089 -10.3564  -9.3590  -9.3544  -9.0313  -8.3637  -8.0526  -8.0392
    -7.3832  -7.3715  -7.0712  -6.8908  -6.4127  -6.3874  -6.1066  -6.0861
    -5.9816  -5.8613  -5.1342  -5.1308  -4.9710  -4.4844  -4.4689  -4.4435
    -4.1506  -4.0420  -3.9950  -3.5379  -3.5086  -3.3169  -3.2712  -3.2449
    -3.2087  -3.1692  -3.1047  -3.1033  -2.5513  -2.2904  -2.2667  -2.2079
    -2.2073  -1.8489  -1.7876  -1.6724  -1.4491  -1.2630  -1.0540  -1.0083
    -0.9711  -0.8274  -0.7379  -0.7207  -0.7193  -0.6534  -0.5943  -0.3949
    -0.3195  -0.1702   0.0554   0.1301   0.3284   0.5714   0.6030   0.6147
     0.7754   0.8864   1.0552   1.1108

          k = 0.0833 0.1389 0.0000 ( 48265 PWs)   bands (ev):

   -16.8089 -10.1336  -9.8001  -9.1355  -8.8128  -8.8035  -8.4825  -7.8278
    -7.5016  -7.1595  -6.8334  -6.6859  -6.5062  -6.3540  -5.8807  -5.7117
    -5.5645  -5.5372  -5.5328  -5.3861  -5.2200  -4.5883  -4.2857  -4.2764
    -4.2346  -3.9502  -3.9277  -3.8283  -3.6623  -3.6088  -3.5153  -3.3490
    -3.2210  -3.0637  -3.0011  -2.8140  -2.7999  -2.6865  -2.5102  -2.4032
    -2.3402  -1.9591  -1.8184  -1.7610  -1.5457  -1.4639  -1.2829  -1.1097
    -1.0723  -0.7548  -0.6550  -0.6017  -0.4937  -0.4351  -0.4036  -0.3317
    -0.2590  -0.0128   0.0521   0.3980   0.4541   0.6793   0.7110   0.7549
     0.7900   0.9220   0.9873   1.1715

          k = 0.1389 0.1389 0.0000 ( 48221 PWs)   bands (ev):

   -16.8089  -9.9112  -9.5801  -9.5763  -9.2458  -8.5933  -8.2726  -8.2555
    -7.9362  -6.4762  -6.2983  -6.2839  -6.1986  -6.0875  -5.9776  -5.9544
    -5.8000  -5.3456  -5.3111  -5.0246  -5.0164  -5.0054  -4.9889  -4.6940
    -4.6883  -4.0764  -4.0588  -3.7975  -3.7225  -3.7206  -3.4951  -3.3504
    -3.1459  -3.0787  -2.9888  -2.8956  -2.7410  -2.7241  -2.4072  -2.3463
    -2.1611  -1.9908  -1.8373  -1.7386  -1.5957  -1.5844  -1.3303  -1.2134
    -1.2079  -1.0360  -0.9468  -0.9115  -0.6069  -0.3911  -0.1965  -0.0468
     0.2363   0.2692   0.3169   0.6011   0.6761   0.7198   0.7568   0.8022
     0.8700   0.9313   0.9597   1.0759

     the Fermi energy is    -0.0842 ev

!    total energy              =   -1463.09398825 Ry
     total all-electron energy =    -17633.081018 Ry
     estimated scf accuracy    <          1.6E-10 Ry
     smearing contrib. (-TS)   =       0.00438681 Ry
     internal energy E=F+TS    =   -1463.09837506 Ry

     The total energy is F=E-TS. E is the sum of the following terms:
     one-electron contribution =   -1630.58406778 Ry
     hartree contribution      =     844.00452122 Ry
     xc contribution           =     -98.47655557 Ry
     ewald contribution        =     679.90379881 Ry
     one-center paw contrib.   =   -1257.94607174 Ry

     convergence has been achieved in   9 iterations

     negative rho (up, down):  5.434E-04 0.000E+00

     Forces acting on atoms (cartesian axes, Ry/au):

     atom    1 type  1   force =     0.00000000    0.00000000   -0.00419251
     atom    2 type  1   force =     0.00000000    0.00039838   -0.00476527
     atom    3 type  1   force =     0.00000000   -0.00039838   -0.00476527
     atom    4 type  1   force =     0.00039838    0.00000000   -0.00476527
     atom    5 type  1   force =    -0.00020269   -0.00020269   -0.00356687
     atom    6 type  1   force =    -0.00020269    0.00020269   -0.00356687
     atom    7 type  1   force =    -0.00039838    0.00000000   -0.00476527
     atom    8 type  1   force =     0.00020269   -0.00020269   -0.00356687
     atom    9 type  1   force =     0.00020269    0.00020269   -0.00356687
     atom   10 type  1   force =    -0.00179384   -0.00179384    0.00633344
     atom   11 type  1   force =    -0.00055731    0.00000000    0.00664260
     atom   12 type  1   force =    -0.00179384    0.00179384    0.00633344
     atom   13 type  1   force =     0.00000000   -0.00055731    0.00664260
     atom   14 type  1   force =     0.00000000    0.00000000    0.00801518
     atom   15 type  1   force =     0.00000000    0.00055731    0.00664260
     atom   16 type  1   force =     0.00179384   -0.00179384    0.00633344
     atom   17 type  1   force =     0.00055731    0.00000000    0.00664260
     atom   18 type  1   force =     0.00179384    0.00179384    0.00633344
     atom   19 type  1   force =     0.00000000    0.00000000   -0.00172295
     atom   20 type  1   force =     0.00000000   -0.00013828   -0.00120656
     atom   21 type  1   force =     0.00000000    0.00013828   -0.00120656
     atom   22 type  1   force =    -0.00013828    0.00000000   -0.00120656
     atom   23 type  1   force =     0.00010371    0.00010371   -0.00090399
     atom   24 type  1   force =     0.00010371   -0.00010371   -0.00090399
     atom   25 type  1   force =     0.00013828    0.00000000   -0.00120656
     atom   26 type  1   force =    -0.00010371    0.00010371   -0.00090399
     atom   27 type  1   force =    -0.00010371   -0.00010371   -0.00090399
     atom   28 type  1   force =    -0.00027922   -0.00027922   -0.00136521
     atom   29 type  1   force =     0.00012897    0.00000000   -0.00145848
     atom   30 type  1   force =    -0.00027922    0.00027922   -0.00136521
     atom   31 type  1   force =     0.00000000    0.00012897   -0.00145848
     atom   32 type  1   force =     0.00000000    0.00000000    0.00000078
     atom   33 type  1   force =     0.00000000   -0.00012897   -0.00145848
     atom   34 type  1   force =     0.00027922   -0.00027922   -0.00136521
     atom   35 type  1   force =    -0.00012897    0.00000000   -0.00145848
     atom   36 type  1   force =     0.00027922    0.00027922   -0.00136521
     atom   37 type  2   force =     0.00000000    0.00000000   -0.00093912

     Total force =     0.005455     Total SCF correction =     0.000018
     Energy error            =      5.6E-05 Ry
     Gradient error          =      1.7E-03 Ry/Bohr

     number of scf cycles    =   4
     number of bfgs steps    =   3

     energy             old  =   -1463.0939325366 Ry
     energy             new  =   -1463.0939882499 Ry

     CASE: energy            _new < energy            _old

     new trust radius        =       0.0049504607 bohr
     new conv_thr            =       0.0000000010 Ry


ATOMIC_POSITIONS (alat)
Al               0.0000000000        0.0000000000        0.0000000000    0   0   0
Al               0.0000000000        0.9999999959        0.0000000000    0   0   0
Al               0.0000000000        1.9999999921        0.0000000000    0   0   0
Al               0.9999999959        0.0000000000        0.0000000000    0   0   0
Al               0.9999999959        0.9999999959        0.0000000000    0   0   0
Al               0.9999999959        1.9999999921        0.0000000000    0   0   0
Al               1.9999999921        0.0000000000        0.0000000000    0   0   0
Al               1.9999999921        0.9999999959        0.0000000000    0   0   0
Al               1.9999999921        1.9999999921        0.0000000000    0   0   0
Al               0.4999999980        0.4999999980        0.7071067662    0   0   0
Al               0.4999999980        1.4999999941        0.7071067662    0   0   0
Al               0.4999999980        2.4999999900        0.7071067662    0   0   0
Al               1.4999999941        0.4999999980        0.7071067662    0   0   0
Al               1.4999999941        1.4999999941        0.7071067662    0   0   0
Al               1.4999999941        2.4999999900        0.7071067662    0   0   0
Al               2.4999999900        0.4999999980        0.7071067662    0   0   0
Al               2.4999999900        1.4999999941        0.7071067662    0   0   0
Al               2.4999999900        2.4999999900        0.7071067662    0   0   0
Al               0.0000000000        0.0000000000        1.4407640472
Al               0.0000000000        1.0008323373        1.4396034973
Al               0.0000000000        1.9991676507        1.4396034973
Al               1.0008323373        0.0000000000        1.4396034973
Al               0.9909221108        0.9909221108        1.4311548876
Al               0.9909221108        2.0090778772        1.4311548876
Al               1.9991676507        0.0000000000        1.4396034973
Al               2.0090778772        0.9909221108        1.4311548876
Al               2.0090778772        2.0090778772        1.4311548876
Al               0.5025029017        0.5025029017        2.1697716670
Al               0.4981389416        1.4999999941        2.1863740155
Al               0.5025029017        2.4974970863        2.1697716670
Al               1.4999999941        0.4981389416        2.1863740155
Al               1.4999999941        1.4999999941        2.0608990105
Al               1.4999999941        2.5018610464        2.1863740155
Al               2.4974970863        0.5025029017        2.1697716670
Al               2.5018610464        1.4999999941        2.1863740155
Al               2.4974970863        2.4974970863        2.1697716670
O                1.4999999976        1.4999999976        2.6494487996    0   0   1



     Writing config-only to output data dir ./tmp/Al.save/ :
     XML data file
     NEW-OLD atomic charge density approx. for the potential

     negative rho (up, down):  5.453E-04 0.000E+00

     total cpu time spent up to now is      588.8 secs

     Self-consistent Calculation

     iteration #  1     ecut=    40.00 Ry     beta= 0.50
     Davidson diagonalization with overlap
     ethr =  1.00E-06,  avg # of iterations =  2.0

     Threshold (ethr) on eigenvalues was too large:
     Diagonalizing with lowered threshold

     Davidson diagonalization with overlap
     ethr =  3.08E-09,  avg # of iterations =  9.0

     negative rho (up, down):  5.485E-04 0.000E+00

     total cpu time spent up to now is      621.9 secs

     total energy              =   -1463.09406815 Ry
     estimated scf accuracy    <       0.00001547 Ry

     iteration #  2     ecut=    40.00 Ry     beta= 0.50
     Davidson diagonalization with overlap
     ethr =  1.36E-08,  avg # of iterations =  1.0

     negative rho (up, down):  5.485E-04 0.000E+00

     total cpu time spent up to now is      634.3 secs

     total energy              =   -1463.09406720 Ry
     estimated scf accuracy    <       0.00000579 Ry

     iteration #  3     ecut=    40.00 Ry     beta= 0.50
     Davidson diagonalization with overlap
     ethr =  5.08E-09,  avg # of iterations =  3.3

     negative rho (up, down):  5.458E-04 0.000E+00

     total cpu time spent up to now is      648.2 secs

     total energy              =   -1463.09406797 Ry
     estimated scf accuracy    <       0.00000005 Ry

     iteration #  4     ecut=    40.00 Ry     beta= 0.50
     Davidson diagonalization with overlap
     ethr =  4.76E-11,  avg # of iterations = 11.5

     negative rho (up, down):  5.458E-04 0.000E+00

     total cpu time spent up to now is      671.5 secs

     total energy              =   -1463.09406811 Ry
     estimated scf accuracy    <       0.00000045 Ry

     iteration #  5     ecut=    40.00 Ry     beta= 0.50
     Davidson diagonalization with overlap
     ethr =  4.76E-11,  avg # of iterations =  1.0

     negative rho (up, down):  5.461E-04 0.000E+00

     total cpu time spent up to now is      683.9 secs

     total energy              =   -1463.09406811 Ry
     estimated scf accuracy    <       0.00000048 Ry

     iteration #  6     ecut=    40.00 Ry     beta= 0.50
     Davidson diagonalization with overlap
     ethr =  4.76E-11,  avg # of iterations =  1.0

     negative rho (up, down):  5.468E-04 0.000E+00

     total cpu time spent up to now is      696.6 secs

     total energy              =   -1463.09406802 Ry
     estimated scf accuracy    <       0.00000049 Ry

     iteration #  7     ecut=    40.00 Ry     beta= 0.50
     Davidson diagonalization with overlap
     ethr =  4.76E-11,  avg # of iterations =  4.5

     negative rho (up, down):  5.466E-04 0.000E+00

     total cpu time spent up to now is      711.5 secs

     total energy              =   -1463.09406805 Ry
     estimated scf accuracy    <       0.00000003 Ry

     iteration #  8     ecut=    40.00 Ry     beta= 0.50
     Davidson diagonalization with overlap
     ethr =  2.71E-11,  avg # of iterations =  1.0

     negative rho (up, down):  5.456E-04 0.000E+00

     total cpu time spent up to now is      724.2 secs

     total energy              =   -1463.09406805 Ry
     estimated scf accuracy    <       0.00000002 Ry

     iteration #  9     ecut=    40.00 Ry     beta= 0.50
     Davidson diagonalization with overlap
     ethr =  1.40E-11,  avg # of iterations =  2.0

     negative rho (up, down):  5.452E-04 0.000E+00

     total cpu time spent up to now is      737.3 secs

     total energy              =   -1463.09406805 Ry
     estimated scf accuracy    <          1.3E-09 Ry

     iteration # 10     ecut=    40.00 Ry     beta= 0.50
     Davidson diagonalization with overlap
     ethr =  1.18E-12,  avg # of iterations = 10.5

     negative rho (up, down):  5.452E-04 0.000E+00

     total cpu time spent up to now is      756.5 secs

     total energy              =   -1463.09406805 Ry
     estimated scf accuracy    <          2.8E-09 Ry

     iteration # 11     ecut=    40.00 Ry     beta= 0.50
     Davidson diagonalization with overlap
     ethr =  1.18E-12,  avg # of iterations =  1.0

     negative rho (up, down):  5.453E-04 0.000E+00

     total cpu time spent up to now is      769.1 secs

     total energy              =   -1463.09406805 Ry
     estimated scf accuracy    <          2.5E-09 Ry

     iteration # 12     ecut=    40.00 Ry     beta= 0.50
     Davidson diagonalization with overlap
     ethr =  1.18E-12,  avg # of iterations =  1.0

     negative rho (up, down):  5.453E-04 0.000E+00

     total cpu time spent up to now is      781.5 secs

     total energy              =   -1463.09406806 Ry
     estimated scf accuracy    <          1.5E-09 Ry

     iteration # 13     ecut=    40.00 Ry     beta= 0.50
     Davidson diagonalization with overlap
     ethr =  1.18E-12,  avg # of iterations =  2.0

     negative rho (up, down):  5.436E-04 0.000E+00

     total cpu time spent up to now is      792.4 secs

     End of self-consistent calculation

          k = 0.0278 0.0278 0.0000 ( 48321 PWs)   bands (ev):

   -16.8089 -10.5825  -9.2517  -8.9207  -8.9147  -8.2608  -8.2520  -7.6132
    -7.6095  -7.2730  -7.1184  -6.9562  -6.9473  -6.6314  -6.6078  -5.9890
    -5.9704  -5.5488  -5.4675  -5.3451  -5.3427  -4.9003  -4.8278  -4.7121
    -4.3245  -3.9190  -3.4145  -3.3996  -3.3313  -3.3055  -2.8712  -2.8654
    -2.7944  -2.4128  -2.2897  -2.2773  -2.1725  -2.1423  -2.0938  -2.0587
    -1.9850  -1.9489  -1.8188  -1.7934  -1.6321  -1.4368  -1.1539  -1.0439
    -0.9148  -0.8625  -0.7108  -0.6697  -0.5854  -0.5248  -0.4908  -0.3972
    -0.2875  -0.2283   0.0156   0.0428   0.0829   0.2104   0.2822   0.3083
     0.3884   0.4523   0.6730   0.9195

          k = 0.0278 0.0833 0.0000 ( 48286 PWs)   bands (ev):

   -16.8089 -10.4709  -9.4706  -9.1417  -8.8074  -8.1574  -8.1448  -7.8185
    -7.5056  -7.4865  -7.1629  -7.0086  -6.8447  -6.5245  -6.2036  -6.0347
    -5.8797  -5.8628  -5.3934  -5.2233  -4.7628  -4.6070  -4.5669  -4.4600
    -4.2401  -4.1119  -3.9726  -3.8155  -3.3424  -3.3217  -3.2883  -3.0260
    -2.8358  -2.6287  -2.5112  -2.4481  -2.3931  -2.2440  -2.0932  -2.0329
    -1.9902  -1.9310  -1.8094  -1.7510  -1.6800  -1.3916  -1.2700  -1.2316
    -1.2141  -1.0888  -0.9963  -0.9290  -0.7682  -0.6828  -0.4615  -0.2720
    -0.1098   0.0127   0.0236   0.2671   0.3197   0.4433   0.5470   0.6388
     0.7114   0.8796   1.0261   1.0530

          k = 0.0278 0.1389 0.0000 ( 48332 PWs)   bands (ev):

   -16.8089 -10.2481  -9.9143  -8.9226  -8.5935  -8.5859  -8.2570  -7.9273
    -7.5990  -7.2853  -6.9635  -6.7940  -6.6383  -6.6142  -6.4536  -6.3038
    -5.6506  -5.3319  -5.1848  -5.0101  -4.8696  -4.5497  -4.3819  -4.3803
    -4.2470  -4.0734  -4.0219  -3.7698  -3.6820  -3.4590  -3.3214  -3.1408
    -3.0927  -2.8906  -2.7743  -2.6484  -2.5534  -2.3256  -2.2648  -2.2135
    -2.0082  -1.8556  -1.8181  -1.7743  -1.7440  -1.6279  -1.5396  -1.4836
    -1.4202  -1.1992  -1.0748  -0.8643  -0.6148  -0.5689  -0.3134  -0.2403
    -0.0394  -0.0273   0.1778   0.3610   0.4518   0.5455   0.6249   0.6645
     0.7567   1.0628   1.2279   1.4810

          k = 0.0833 0.0833 0.0000 ( 48259 PWs)   bands (ev):

   -16.8089 -10.3594  -9.3623  -9.3573  -9.0318  -8.3668  -8.0527  -8.0399
    -7.3865  -7.3744  -7.0716  -6.8922  -6.4156  -6.3907  -6.1072  -6.0863
    -5.9824  -5.8630  -5.1344  -5.1315  -4.9722  -4.4875  -4.4718  -4.4467
    -4.1501  -4.0428  -3.9963  -3.5411  -3.5115  -3.3163  -3.2717  -3.2452
    -3.2090  -3.1690  -3.1055  -3.1044  -2.5513  -2.2904  -2.2671  -2.2106
    -2.2074  -1.8493  -1.7869  -1.6726  -1.4492  -1.2636  -1.0549  -1.0081
    -0.9708  -0.8295  -0.7389  -0.7215  -0.7206  -0.6567  -0.5949  -0.3961
    -0.3224  -0.1703   0.0553   0.1302   0.3283   0.5712   0.6028   0.6141
     0.7763   0.8862   1.0539   1.1092

          k = 0.0833 0.1389 0.0000 ( 48265 PWs)   bands (ev):

   -16.8089 -10.1367  -9.8032  -9.1385  -8.8136  -8.8063  -8.4830  -7.8282
    -7.5020  -7.1626  -6.8365  -6.6872  -6.5093  -6.3551  -5.8812  -5.7130
    -5.5658  -5.5402  -5.5351  -5.3873  -5.2204  -4.5913  -4.2864  -4.2771
    -4.2369  -3.9505  -3.9297  -3.8293  -3.6652  -3.6083  -3.5165  -3.3493
    -3.2220  -3.0636  -3.0010  -2.8151  -2.8016  -2.6865  -2.5107  -2.4038
    -2.3410  -1.9596  -1.8189  -1.7613  -1.5453  -1.4640  -1.2828  -1.1103
    -1.0725  -0.7545  -0.6555  -0.6014  -0.4964  -0.4374  -0.4050  -0.3323
    -0.2611  -0.0127   0.0519   0.3955   0.4532   0.6787   0.7110   0.7531
     0.7893   0.9218   0.9869   1.1719

          k = 0.1389 0.1389 0.0000 ( 48221 PWs)   bands (ev):

   -16.8089  -9.9143  -9.5834  -9.5792  -9.2489  -8.5937  -8.2728  -8.2562
    -7.9366  -6.4774  -6.3016  -6.2867  -6.1995  -6.0891  -5.9806  -5.9577
    -5.8012  -5.3485  -5.3144  -5.0268  -5.0181  -5.0066  -4.9907  -4.6946
    -4.6885  -4.0764  -4.0594  -3.7977  -3.7226  -3.7202  -3.4939  -3.3500
    -3.1458  -3.0795  -2.9896  -2.8985  -2.7425  -2.7253  -2.4101  -2.3466
    -2.1620  -1.9915  -1.8385  -1.7397  -1.5959  -1.5851  -1.3305  -1.2139
    -1.2076  -1.0385  -0.9465  -0.9112  -0.6089  -0.3916  -0.1954  -0.0462
     0.2366   0.2698   0.3163   0.6011   0.6746   0.7180   0.7565   0.8003
     0.8666   0.9322   0.9589   1.0753

     the Fermi energy is    -0.0849 ev

!    total energy              =   -1463.09406806 Ry
     total all-electron energy =    -17633.081097 Ry
     estimated scf accuracy    <          1.6E-10 Ry
     smearing contrib. (-TS)   =       0.00447184 Ry
     internal energy E=F+TS    =   -1463.09853990 Ry

     The total energy is F=E-TS. E is the sum of the following terms:
     one-electron contribution =   -1631.16919465 Ry
     hartree contribution      =     844.29526130 Ry
     xc contribution           =     -98.48070280 Ry
     ewald contribution        =     680.20275979 Ry
     one-center paw contrib.   =   -1257.94666354 Ry

     convergence has been achieved in  13 iterations

     negative rho (up, down):  5.436E-04 0.000E+00

     Forces acting on atoms (cartesian axes, Ry/au):

     atom    1 type  1   force =     0.00000000    0.00000000   -0.00420317
     atom    2 type  1   force =     0.00000000    0.00039496   -0.00477319
     atom    3 type  1   force =     0.00000000   -0.00039496   -0.00477319
     atom    4 type  1   force =     0.00039496    0.00000000   -0.00477319
     atom    5 type  1   force =    -0.00020282   -0.00020282   -0.00357306
     atom    6 type  1   force =    -0.00020282    0.00020282   -0.00357306
     atom    7 type  1   force =    -0.00039496    0.00000000   -0.00477319
     atom    8 type  1   force =     0.00020282   -0.00020282   -0.00357306
     atom    9 type  1   force =     0.00020282    0.00020282   -0.00357306
     atom   10 type  1   force =    -0.00177947   -0.00177947    0.00616956
     atom   11 type  1   force =    -0.00055324    0.00000000    0.00650912
     atom   12 type  1   force =    -0.00177947    0.00177947    0.00616956
     atom   13 type  1   force =     0.00000000   -0.00055324    0.00650912
     atom   14 type  1   force =     0.00000000    0.00000000    0.00789057
     atom   15 type  1   force =     0.00000000    0.00055324    0.00650912
     atom   16 type  1   force =     0.00177947   -0.00177947    0.00616956
     atom   17 type  1   force =     0.00055324    0.00000000    0.00650912
     atom   18 type  1   force =     0.00177947    0.00177947    0.00616956
     atom   19 type  1   force =     0.00000000    0.00000000   -0.00154219
     atom   20 type  1   force =     0.00000000   -0.00008389   -0.00106426
     atom   21 type  1   force =     0.00000000    0.00008389   -0.00106426
     atom   22 type  1   force =    -0.00008389    0.00000000   -0.00106426
     atom   23 type  1   force =     0.00009620    0.00009620   -0.00078353
     atom   24 type  1   force =     0.00009620   -0.00009620   -0.00078353
     atom   25 type  1   force =     0.00008389    0.00000000   -0.00106426
     atom   26 type  1   force =    -0.00009620    0.00009620   -0.00078353
     atom   27 type  1   force =    -0.00009620   -0.00009620   -0.00078353
     atom   28 type  1   force =    -0.00022871   -0.00022871   -0.00134198
     atom   29 type  1   force =     0.00005029    0.00000000   -0.00142713
     atom   30 type  1   force =    -0.00022871    0.00022871   -0.00134198
     atom   31 type  1   force =     0.00000000    0.00005029   -0.00142713
     atom   32 type  1   force =     0.00000000    0.00000000   -0.00003076
     atom   33 type  1   force =     0.00000000   -0.00005029   -0.00142713
     atom   34 type  1   force =     0.00022871   -0.00022871   -0.00134198
     atom   35 type  1   force =    -0.00005029    0.00000000   -0.00142713
     atom   36 type  1   force =     0.00022871    0.00022871   -0.00134198
     atom   37 type  2   force =     0.00000000    0.00000000   -0.00097660

     Total force =     0.005119     Total SCF correction =     0.000013
     Energy error            =      8.0E-05 Ry
     Gradient error          =      1.5E-03 Ry/Bohr

     number of scf cycles    =   5
     number of bfgs steps    =   4

     energy             old  =   -1463.0939882499 Ry
     energy             new  =   -1463.0940680565 Ry

     CASE: energy            _new < energy            _old

     new trust radius        =       0.0074256910 bohr
     new conv_thr            =       0.0000000010 Ry


ATOMIC_POSITIONS (alat)
[...]
Al               2.0083224414        2.0083224414        1.4249834437
Al               0.5012291195        0.5012291195        2.1565914875
Al               0.4971216339        1.4999999958        2.1725092986
Al               0.5012291195        2.4987708720        2.1565914875
Al               1.4999999958        0.4971216339        2.1725092986
Al               1.4999999958        1.4999999958        2.0556244476
Al               1.4999999958        2.5028783576        2.1725092986
Al               2.4987708720        0.5012291195        2.1565914875
Al               2.5028783576        1.4999999958        2.1725092986
Al               2.4987708720        2.4987708720        2.1565914875
O                1.4999999993        1.4999999993        2.6435558304    0   0   1



     Writing config-only to output data dir ./tmp/Al.save/ :
     XML data file
     NEW-OLD atomic charge density approx. for the potential

     negative rho (up, down):  5.540E-04 0.000E+00

     total cpu time spent up to now is     1653.9 secs

     Self-consistent Calculation

     iteration #  1     ecut=    40.00 Ry     beta= 0.50
     Davidson diagonalization with overlap
     ethr =  1.00E-06,  avg # of iterations =  4.7

     Threshold (ethr) on eigenvalues was too large:
     Diagonalizing with lowered threshold

     Davidson diagonalization with overlap
     ethr =  5.14E-08,  avg # of iterations =  7.2

     negative rho (up, down):  5.756E-04 0.000E+00

     total cpu time spent up to now is     1685.1 secs

     total energy              =   -1463.09473903 Ry
     estimated scf accuracy    <       0.00011015 Ry

     iteration #  2     ecut=    40.00 Ry     beta= 0.50
     Davidson diagonalization with overlap
     ethr =  9.66E-08,  avg # of iterations =  1.0

     negative rho (up, down):  5.857E-04 0.000E+00

     total cpu time spent up to now is     1697.6 secs

     total energy              =   -1463.09472921 Ry
     estimated scf accuracy    <       0.00004564 Ry

     iteration #  3     ecut=    40.00 Ry     beta= 0.50
     Davidson diagonalization with overlap
     ethr =  4.00E-08,  avg # of iterations =  3.8

     negative rho (up, down):  5.699E-04 0.000E+00

     total cpu time spent up to now is     1712.1 secs

     total energy              =   -1463.09473691 Ry
     estimated scf accuracy    <       0.00000201 Ry

     iteration #  4     ecut=    40.00 Ry     beta= 0.50
     Davidson diagonalization with overlap
     ethr =  1.76E-09,  avg # of iterations =  7.0

     negative rho (up, down):  5.723E-04 0.000E+00

     total cpu time spent up to now is     1729.6 secs

     total energy              =   -1463.09473785 Ry
     estimated scf accuracy    <       0.00000216 Ry

     iteration #  5     ecut=    40.00 Ry     beta= 0.50
     Davidson diagonalization with overlap
     ethr =  1.76E-09,  avg # of iterations =  1.0

     negative rho (up, down):  5.528E-04 0.000E+00

     total cpu time spent up to now is     1742.1 secs

     total energy              =   -1463.09473708 Ry
     estimated scf accuracy    <       0.00000336 Ry

     iteration #  6     ecut=    40.00 Ry     beta= 0.50
     Davidson diagonalization with overlap
     ethr =  1.76E-09,  avg # of iterations =  2.2

     negative rho (up, down):  5.526E-04 0.000E+00

     total cpu time spent up to now is     1755.7 secs

     total energy              =   -1463.09473736 Ry
     estimated scf accuracy    <       0.00000013 Ry

     iteration #  7     ecut=    40.00 Ry     beta= 0.50
     Davidson diagonalization with overlap
     ethr =  1.16E-10,  avg # of iterations =  8.5

     negative rho (up, down):  5.537E-04 0.000E+00

     total cpu time spent up to now is     1773.6 secs

     total energy              =   -1463.09473742 Ry
     estimated scf accuracy    <       0.00000002 Ry

     iteration #  8     ecut=    40.00 Ry     beta= 0.50
     Davidson diagonalization with overlap
     ethr =  1.72E-11,  avg # of iterations =  7.7

     negative rho (up, down):  5.532E-04 0.000E+00

     total cpu time spent up to now is     1790.3 secs

     total energy              =   -1463.09473744 Ry
     estimated scf accuracy    <          4.5E-09 Ry

     iteration #  9     ecut=    40.00 Ry     beta= 0.50
     Davidson diagonalization with overlap
     ethr =  3.97E-12,  avg # of iterations =  6.7

     negative rho (up, down):  5.527E-04 0.000E+00

     total cpu time spent up to now is     1807.8 secs

     total energy              =   -1463.09473745 Ry
     estimated scf accuracy    <       0.00000002 Ry

     iteration # 10     ecut=    40.00 Ry     beta= 0.50
     Davidson diagonalization with overlap
     ethr =  3.97E-12,  avg # of iterations =  2.0

     negative rho (up, down):  5.518E-04 0.000E+00

     total cpu time spent up to now is     1820.7 secs

     total energy              =   -1463.09473745 Ry
     estimated scf accuracy    <       0.00000003 Ry

     iteration # 11     ecut=    40.00 Ry     beta= 0.50
     Davidson diagonalization with overlap
     ethr =  3.97E-12,  avg # of iterations =  2.0

     negative rho (up, down):  5.501E-04 0.000E+00

     total cpu time spent up to now is     1833.6 secs

     total energy              =   -1463.09473745 Ry
     estimated scf accuracy    <       0.00000001 Ry

     iteration # 12     ecut=    40.00 Ry     beta= 0.50
     Davidson diagonalization with overlap
     ethr =  3.97E-12,  avg # of iterations =  4.2

     negative rho (up, down):  5.492E-04 0.000E+00

     total cpu time spent up to now is     1849.3 secs

     total energy              =   -1463.09473745 Ry
     estimated scf accuracy    <          3.7E-09 Ry

     iteration # 13     ecut=    40.00 Ry     beta= 0.50
     Davidson diagonalization with overlap
     ethr =  3.22E-12,  avg # of iterations =  1.0

     negative rho (up, down):  5.480E-04 0.000E+00

     total cpu time spent up to now is     1862.0 secs

     total energy              =   -1463.09473745 Ry
     estimated scf accuracy    <          3.0E-09 Ry

     iteration # 14     ecut=    40.00 Ry     beta= 0.50
     Davidson diagonalization with overlap
     ethr =  2.66E-12,  avg # of iterations =  2.2

     negative rho (up, down):  5.466E-04 0.000E+00

     total cpu time spent up to now is     1874.0 secs

     End of self-consistent calculation

          k = 0.0278 0.0278 0.0000 ( 48321 PWs)   bands (ev):

   -16.7984 -10.6348  -9.2734  -8.9731  -8.9668  -8.3133  -8.3043  -7.6354
    -7.6298  -7.3253  -7.1369  -6.9788  -6.9671  -6.6833  -6.6611  -6.0258
    -6.0075  -5.5640  -5.4854  -5.3668  -5.3622  -4.9158  -4.8461  -4.7324
    -4.3120  -3.9345  -3.4660  -3.4453  -3.3532  -3.3204  -2.8612  -2.8518
    -2.8015  -2.4141  -2.2874  -2.2871  -2.1894  -2.1811  -2.1416  -2.0477
    -2.0311  -2.0017  -1.8627  -1.7997  -1.6428  -1.4351  -1.2065  -1.0377
    -0.9326  -0.8757  -0.7346  -0.6832  -0.6026  -0.5146  -0.4895  -0.4431
    -0.2885  -0.2284  -0.0055   0.0450   0.0916   0.1868   0.2563   0.3000
     0.3495   0.4051   0.6661   0.9063

          k = 0.0278 0.0833 0.0000 ( 48286 PWs)   bands (ev):

   -16.7984 -10.5232  -9.5228  -9.1634  -8.8596  -8.1997  -8.1763  -7.8708
    -7.5437  -7.5220  -7.2155  -7.0269  -6.8658  -6.5457  -6.2244  -6.0523
    -5.9175  -5.8984  -5.4102  -5.2761  -4.7797  -4.6273  -4.6187  -4.4740
    -4.2333  -4.1240  -3.9928  -3.8315  -3.3636  -3.3434  -3.3031  -3.0781
    -2.8295  -2.6338  -2.5529  -2.4747  -2.4195  -2.2499  -2.1043  -2.0730
    -1.9956  -1.9272  -1.8112  -1.7634  -1.6784  -1.3958  -1.2773  -1.2675
    -1.2467  -1.0922  -0.9950  -0.9373  -0.8167  -0.6934  -0.4661  -0.2655
    -0.1596  -0.0051   0.0140   0.2589   0.3285   0.4305   0.5390   0.6485
     0.7082   0.8714   0.9969   1.0340

          k = 0.0278 0.1389 0.0000 ( 48332 PWs)   bands (ev):

   -16.7984 -10.3003  -9.9666  -8.9442  -8.6394  -8.6136  -8.3093  -7.9797
    -7.6515  -7.3066  -6.9844  -6.8124  -6.6732  -6.6527  -6.4712  -6.3246
    -5.7035  -5.3524  -5.2017  -5.0625  -4.8857  -4.5667  -4.4325  -4.4014
    -4.2621  -4.1234  -4.0126  -3.7838  -3.6739  -3.5116  -3.3354  -3.1617
    -3.1435  -2.9088  -2.8231  -2.6444  -2.5559  -2.3212  -2.2729  -2.2194
    -2.0131  -1.8829  -1.8472  -1.7734  -1.7428  -1.6362  -1.5866  -1.4833
    -1.4189  -1.2065  -1.0786  -0.8742  -0.6272  -0.5820  -0.3312  -0.2399
    -0.0509  -0.0216   0.1821   0.3509   0.4590   0.5457   0.5753   0.6182
     0.7528   1.0715   1.2307   1.4685

          k = 0.0833 0.0833 0.0000 ( 48259 PWs)   bands (ev):

   -16.7984 -10.4117  -9.4147  -9.4094  -9.0534  -8.4192  -8.0749  -8.0605
    -7.4388  -7.4268  -7.0926  -6.9107  -6.4673  -6.4441  -6.1264  -6.1090
    -5.9976  -5.8829  -5.1541  -5.1531  -4.9885  -4.5396  -4.5240  -4.4999
    -4.1401  -4.0583  -4.0082  -3.5920  -3.5644  -3.3092  -3.2905  -3.2634
    -3.2196  -3.1583  -3.1205  -3.1203  -2.5501  -2.2954  -2.2924  -2.2581
    -2.2044  -1.8481  -1.7742  -1.6734  -1.4487  -1.2694  -1.0669  -1.0184
    -0.9685  -0.8705  -0.7656  -0.7463  -0.7221  -0.7086  -0.5989  -0.4214
    -0.3654  -0.1691   0.0562   0.1311   0.3236   0.5576   0.5862   0.5919
     0.7874   0.8662   1.0250   1.0879

          k = 0.0833 0.1389 0.0000 ( 48265 PWs)   bands (ev):

   -16.7984 -10.1890  -9.8555  -9.1908  -8.8596  -8.8342  -8.5044  -7.8496
    -7.5232  -7.2149  -6.8891  -6.7053  -6.5620  -6.3721  -5.9017  -5.7313
    -5.6038  -5.5924  -5.5712  -5.4041  -5.2409  -4.6439  -4.3151  -4.3028
    -4.2745  -3.9899  -3.9297  -3.8429  -3.7157  -3.5966  -3.5322  -3.3680
    -3.2358  -3.0676  -3.0030  -2.8608  -2.8055  -2.6967  -2.5262  -2.4117
    -2.3540  -1.9644  -1.8234  -1.7657  -1.5430  -1.4688  -1.2815  -1.1183
    -1.0743  -0.7500  -0.6625  -0.5972  -0.5427  -0.4814  -0.4199  -0.3567
    -0.2813  -0.0133   0.0500   0.3502   0.4418   0.6563   0.7047   0.7303
     0.7702   0.9094   0.9692   1.1783

          k = 0.1389 0.1389 0.0000 ( 48221 PWs)   bands (ev):

   -16.7984  -9.9665  -9.6358  -9.6313  -9.3013  -8.6153  -8.2949  -8.2769
    -7.9578  -6.4953  -6.3542  -6.3391  -6.2149  -6.1090  -6.0326  -6.0110
    -5.8176  -5.3996  -5.3684  -5.0774  -5.0534  -5.0391  -5.0191  -4.7153
    -4.7088  -4.0945  -4.0804  -3.8092  -3.7451  -3.7121  -3.4775  -3.3375
    -3.1404  -3.0828  -3.0041  -2.9482  -2.7573  -2.7420  -2.4614  -2.3510
    -2.1726  -2.0006  -1.8562  -1.7573  -1.6044  -1.5933  -1.3303  -1.2181
    -1.2137  -1.0836  -0.9382  -0.9126  -0.6477  -0.3950  -0.1792  -0.0342
     0.2409   0.2817   0.2948   0.5968   0.6346   0.7049   0.7368   0.7624
     0.8117   0.9419   0.9521   1.0674

     the Fermi energy is    -0.0981 ev

!    total energy              =   -1463.09473745 Ry
     total all-electron energy =    -17633.081767 Ry
     estimated scf accuracy    <          1.8E-10 Ry
     smearing contrib. (-TS)   =       0.00612192 Ry
     internal energy E=F+TS    =   -1463.10085937 Ry

     The total energy is F=E-TS. E is the sum of the following terms:
     one-electron contribution =   -1641.83673463 Ry
     hartree contribution      =     849.59388548 Ry
     xc contribution           =     -98.56146797 Ry
     ewald contribution        =     685.66189529 Ry
     one-center paw contrib.   =   -1257.95843754 Ry

     convergence has been achieved in  14 iterations

     negative rho (up, down):  5.466E-04 0.000E+00

     Forces acting on atoms (cartesian axes, Ry/au):

     atom    1 type  1   force =     0.00000000    0.00000000   -0.00442598
     atom    2 type  1   force =     0.00000000    0.00039713   -0.00494100
     atom    3 type  1   force =     0.00000000   -0.00039713   -0.00494100
     atom    4 type  1   force =     0.00039713    0.00000000   -0.00494100
     atom    5 type  1   force =    -0.00020781   -0.00020781   -0.00370171
     atom    6 type  1   force =    -0.00020781    0.00020781   -0.00370171
     atom    7 type  1   force =    -0.00039713    0.00000000   -0.00494100
     atom    8 type  1   force =     0.00020781   -0.00020781   -0.00370171
     atom    9 type  1   force =     0.00020781    0.00020781   -0.00370171
     atom   10 type  1   force =    -0.00155753   -0.00155753    0.00403022
     atom   11 type  1   force =    -0.00042642    0.00000000    0.00457529
     atom   12 type  1   force =    -0.00155753    0.00155753    0.00403022
     atom   13 type  1   force =     0.00000000   -0.00042642    0.00457529
     atom   14 type  1   force =     0.00000000    0.00000000    0.00625014
     atom   15 type  1   force =     0.00000000    0.00042642    0.00457529
     atom   16 type  1   force =     0.00155753   -0.00155753    0.00403022
     atom   17 type  1   force =     0.00042642    0.00000000    0.00457529
     atom   18 type  1   force =     0.00155753    0.00155753    0.00403022
     atom   19 type  1   force =     0.00000000    0.00000000    0.00022695
     atom   20 type  1   force =     0.00000000   -0.00006929   -0.00019900
     atom   21 type  1   force =     0.00000000    0.00006929   -0.00019900
     atom   22 type  1   force =    -0.00006929    0.00000000   -0.00019900
     atom   23 type  1   force =     0.00000856    0.00000856   -0.00016391
     atom   24 type  1   force =     0.00000856   -0.00000856   -0.00016391
     atom   25 type  1   force =     0.00006929    0.00000000   -0.00019900
     atom   26 type  1   force =    -0.00000856    0.00000856   -0.00016391
     atom   27 type  1   force =    -0.00000856   -0.00000856   -0.00016391
     atom   28 type  1   force =     0.00005521    0.00005521   -0.00003582
     atom   29 type  1   force =    -0.00000089    0.00000000   -0.00006352
     atom   30 type  1   force =     0.00005521   -0.00005521   -0.00003582
     atom   31 type  1   force =     0.00000000   -0.00000089   -0.00006352
     atom   32 type  1   force =     0.00000000    0.00000000   -0.00007018
     atom   33 type  1   force =     0.00000000    0.00000089   -0.00006352
     atom   34 type  1   force =    -0.00005521    0.00005521   -0.00003582
     atom   35 type  1   force =     0.00000089    0.00000000   -0.00006352
     atom   36 type  1   force =    -0.00005521   -0.00005521   -0.00003582
     atom   37 type  2   force =     0.00000000    0.00000000    0.00001683

     Total force =     0.000623     Total SCF correction =     0.000013
     Energy error            =      4.2E-05 Ry
     Gradient error          =      2.3E-04 Ry/Bohr

     bfgs converged in  10 scf cycles and   9 bfgs steps
     (criteria: energy <  1.0E-04 Ry, force <  1.0E-03 Ry/Bohr)

     End of BFGS Geometry Optimization

     Final energy             =   -1463.0947374536 Ry

     File ./tmp/Al.bfgs deleted, as requested
Begin final coordinates

ATOMIC_POSITIONS (alat)
Al               0.0000000000        0.0000000000        0.0000000000    0   0   0
Al               0.0000000000        0.9999999970        0.0000000000    0   0   0
Al               0.0000000000        1.9999999944        0.0000000000    0   0   0
Al               0.9999999970        0.0000000000        0.0000000000    0   0   0
Al               0.9999999970        0.9999999970        0.0000000000    0   0   0
Al               0.9999999970        1.9999999944        0.0000000000    0   0   0
Al               1.9999999944        0.0000000000        0.0000000000    0   0   0
Al               1.9999999944        0.9999999970        0.0000000000    0   0   0
Al               1.9999999944        1.9999999944        0.0000000000    0   0   0
Al               0.4999999986        0.4999999986        0.7071067670    0   0   0
Al               0.4999999986        1.4999999958        0.7071067670    0   0   0
Al               0.4999999986        2.4999999929        0.7071067670    0   0   0
Al               1.4999999958        0.4999999986        0.7071067670    0   0   0
Al               1.4999999958        1.4999999958        0.7071067670    0   0   0
Al               1.4999999958        2.4999999929        0.7071067670    0   0   0
Al               2.4999999929        0.4999999986        0.7071067670    0   0   0
Al               2.4999999929        1.4999999958        0.7071067670    0   0   0
Al               2.4999999929        2.4999999929        0.7071067670    0   0   0
Al               0.0000000000        0.0000000000        1.4291457179
Al               0.0000000000        1.0007151822        1.4309395020
Al               0.0000000000        1.9992848093        1.4309395020
Al               1.0007151822        0.0000000000        1.4309395020
Al               0.9916775500        0.9916775500        1.4249834437
Al               0.9916775500        2.0083224414        1.4249834437
Al               1.9992848093        0.0000000000        1.4309395020
Al               2.0083224414        0.9916775500        1.4249834437
Al               2.0083224414        2.0083224414        1.4249834437
Al               0.5012291195        0.5012291195        2.1565914875
Al               0.4971216339        1.4999999958        2.1725092986
Al               0.5012291195        2.4987708720        2.1565914875
Al               1.4999999958        0.4971216339        2.1725092986
Al               1.4999999958        1.4999999958        2.0556244476
Al               1.4999999958        2.5028783576        2.1725092986
Al               2.4987708720        0.5012291195        2.1565914875
Al               2.5028783576        1.4999999958        2.1725092986
Al               2.4987708720        2.4987708720        2.1565914875
O                1.4999999993        1.4999999993        2.6435558304    0   0   1
End final coordinates



     Writing all to output data dir ./tmp/Al.save/ :
     XML data file, charge density, pseudopotentials, collected wavefunctions

     init_run     :      8.60s CPU      9.55s WALL (       1 calls)
     electrons    :   1679.02s CPU   1767.44s WALL (      10 calls)
     update_pot   :     16.36s CPU     17.70s WALL (       9 calls)
     forces       :     62.82s CPU     67.90s WALL (      10 calls)

     Called by init_run:
     wfcinit      :      5.34s CPU      5.75s WALL (       1 calls)
     potinit      :      1.54s CPU      1.77s WALL (       1 calls)
     hinit0       :      0.58s CPU      0.67s WALL (       1 calls)

     Called by electrons:
     c_bands      :    993.08s CPU   1018.76s WALL (     117 calls)
     sum_band     :    253.17s CPU    277.95s WALL (     117 calls)
     v_of_rho     :    115.07s CPU    126.23s WALL (     119 calls)
     newd         :     67.15s CPU     85.46s WALL (     119 calls)
     PAW_pot      :     65.67s CPU     65.70s WALL (     128 calls)
     mix_rho      :    195.38s CPU    204.60s WALL (     117 calls)

     Called by c_bands:
     init_us_2    :     42.42s CPU     43.41s WALL (     244 calls)
     cegterg      :    887.71s CPU    909.79s WALL (     117 calls)

     Called by *egterg:
     cdiaghg      :      3.44s CPU      3.46s WALL (     675 calls)
     h_psi        :    675.72s CPU    693.92s WALL (     693 calls)
     s_psi        :    108.91s CPU    109.16s WALL (     693 calls)
     g_psi        :      1.78s CPU      1.79s WALL (     575 calls)

     Called by h_psi:
     h_psi:calbec :     99.31s CPU    100.41s WALL (     693 calls)
     vloc_psi     :    465.63s CPU    480.23s WALL (     693 calls)
     add_vuspsi   :    108.14s CPU    108.26s WALL (     693 calls)

     General routines
     calbec       :    140.32s CPU    141.59s WALL (     859 calls)
     fft          :     71.42s CPU     79.23s WALL (    1654 calls)
     ffts         :     88.29s CPU     94.34s WALL (   12413 calls)
     fftw         :    367.68s CPU    381.23s WALL (   55690 calls)
     interpolate  :      8.02s CPU      8.47s WALL (     119 calls)

     Parallel routines

     PWSCF        :  29m42.78s CPU  31m22.05s WALL


   This run was terminated on:  15: 7: 6  19May2025            

=------------------------------------------------------------------------------=
   JOB DONE.
=------------------------------------------------------------------------------=
