No protocol specified

     Program PWSCF v.7.3.1 starts on 19May2025 at 15:11:55 

     This program is part of the open-source Quantum ESPRESSO suite
     for quantum simulation of materials; please cite
         "P. Giannozzi et al., J. Phys.:Condens. Matter 21 395502 (2009);
         "P. Giannozzi et al., J. Phys.:Condens. Matter 29 465901 (2017);
         "P. Giannozzi et al., J. Chem. Phys. 152 154105 (2020);
          URL http://www.quantum-espresso.org", 
     in publications or presentations arising from this work. More details at
     http://www.quantum-espresso.org/quote

     Parallel version (MPI), running on    15 processors

     MPI processes distributed on     1 nodes
     25189 MiB available memory on the printing compute node when the environment starts

     Waiting for input...
     Reading input from standard input

     Current dimensions of program PWSCF are:
     Max number of different atomic species (ntypx) = 10
     Max number of k-points (npk) =  40000
     Max angular momentum in pseudopotentials (lmaxx) =  4
     Message from routine input:
     WARNING: "startingwfc" set to atomic may spoil restart
     file Al.pbe-n-kjpaw_psl.1.0.0.UPF: wavefunction(s)  3S 3P renormalized
     file O.pbe-n-kjpaw_psl.0.1.UPF: wavefunction(s)  2P renormalized
     Message from routine setup:
     using ibrav=0 with symmetry is DISCOURAGED, use correct ibrav instead

     K-points division:     npool     =       5
     R & G space division:  proc/nbgrp/npool/nimage =       3
     Subspace diagonalization in iterative solution of the eigenvalue problem:
     a serial algorithm will be used


     Parallelization info
     --------------------
     sticks:   dense  smooth     PW     G-vecs:    dense   smooth      PW
     Min        2221    1113    295               364047   128783   17941
     Max        2222    1114    295               364052   128786   17941
     Sum        6665    3341    885              1092149   386353   53823

     Using Slab Decomposition



     bravais-lattice index     =            0
     lattice parameter (alat)  =       5.3944  a.u.
     unit-cell volume          =   11302.2493 (a.u.)^3
     number of atoms/cell      =           37
     number of atomic types    =            2
     number of electrons       =       114.00
     number of Kohn-Sham states=           68
     kinetic-energy cutoff     =      40.0000  Ry
     charge density cutoff     =     320.0000  Ry
     scf convergence threshold =      1.0E-07
     mixing beta               =       0.5000
     number of iterations used =            8  local-TF  mixing
     energy convergence thresh.=      1.0E-04
     force convergence thresh. =      1.0E-03
     Exchange-correlation= SLA  PW   PBX  PBC
                           (   1   4   3   4   0   0   0)
     nstep                     =           50


     celldm(1)=   5.394412  celldm(2)=   0.000000  celldm(3)=   0.000000
     celldm(4)=   0.000000  celldm(5)=   0.000000  celldm(6)=   0.000000

     crystal axes: (cart. coord. in units of alat)
               a(1) = (   3.000000   0.000000   0.000000 )  
               a(2) = (   0.000000   3.000000   0.000000 )  
               a(3) = (   0.000000   0.000000   8.000000 )  

     reciprocal axes: (cart. coord. in units 2 pi/alat)
               b(1) = (  0.333333  0.000000  0.000000 )  
               b(2) = (  0.000000  0.333333  0.000000 )  
               b(3) = (  0.000000  0.000000  0.125000 )  


     PseudoPot. # 1 for Al read from file:
     ../../Pseudo/Al.pbe-n-kjpaw_psl.1.0.0.UPF
     MD5 check sum: dd5adf945272da8132fc805c9e56c2d6
     Pseudo is Projector augmented-wave + core cor, Zval =  3.0
     Generated using "atomic" code by A. Dal Corso  v.5.1
     Shape of augmentation charge: PSQ
     Using radial grid of 1135 points,  6 beta functions with: 
                l(1) =   0
                l(2) =   0
                l(3) =   1
                l(4) =   1
                l(5) =   2
                l(6) =   2
     Q(r) pseudized with 0 coefficients 


     PseudoPot. # 2 for O  read from file:
     ../../Pseudo/O.pbe-n-kjpaw_psl.0.1.UPF
     MD5 check sum: 0234752ac141de4415c5fc33072bef88
     Pseudo is Projector augmented-wave + core cor, Zval =  6.0
     Generated using "atomic" code by A. Dal Corso  v.5.0.99 svn rev. 10869
     Shape of augmentation charge: BESSEL
     Using radial grid of 1095 points,  4 beta functions with: 
                l(1) =   0
                l(2) =   0
                l(3) =   1
                l(4) =   1
     Q(r) pseudized with 0 coefficients 


     atomic species   valence    mass     pseudopotential
     Al                3.00     1.00000     Al( 1.00)
     O                 6.00     1.00000     O ( 1.00)

      8 Sym. Ops. (no inversion) found



   Cartesian axes

     site n.     atom                  positions (alat units)
         1        Al     tau(   1) = (   0.0000000   0.0000000   0.0000000  )
         2        Al     tau(   2) = (   0.0000000   1.0000000   0.0000000  )
         3        Al     tau(   3) = (   0.0000000   2.0000000   0.0000000  )
         4        Al     tau(   4) = (   1.0000000   0.0000000   0.0000000  )
         5        Al     tau(   5) = (   1.0000000   1.0000000   0.0000000  )
         6        Al     tau(   6) = (   1.0000000   2.0000000   0.0000000  )
         7        Al     tau(   7) = (   2.0000000   0.0000000   0.0000000  )
         8        Al     tau(   8) = (   2.0000000   1.0000000   0.0000000  )
         9        Al     tau(   9) = (   2.0000000   2.0000000   0.0000000  )
        10        Al     tau(  10) = (   0.5000000   0.5000000   0.7071068  )
        11        Al     tau(  11) = (   0.5000000   1.5000000   0.7071068  )
        12        Al     tau(  12) = (   0.5000000   2.5000000   0.7071068  )
        13        Al     tau(  13) = (   1.5000000   0.5000000   0.7071068  )
        14        Al     tau(  14) = (   1.5000000   1.5000000   0.7071068  )
        15        Al     tau(  15) = (   1.5000000   2.5000000   0.7071068  )
        16        Al     tau(  16) = (   2.5000000   0.5000000   0.7071068  )
        17        Al     tau(  17) = (   2.5000000   1.5000000   0.7071068  )
        18        Al     tau(  18) = (   2.5000000   2.5000000   0.7071068  )
        19        Al     tau(  19) = (   0.0000000   0.0000000   1.4291457  )
        20        Al     tau(  20) = (   0.0000000   1.0007152   1.4309395  )
        21        Al     tau(  21) = (   0.0000000   1.9992848   1.4309395  )
        22        Al     tau(  22) = (   1.0007152   0.0000000   1.4309395  )
        23        Al     tau(  23) = (   0.9916776   0.9916776   1.4249834  )
        24        Al     tau(  24) = (   0.9916776   2.0083224   1.4249834  )
        25        Al     tau(  25) = (   1.9992848   0.0000000   1.4309395  )
        26        Al     tau(  26) = (   2.0083224   0.9916776   1.4249834  )
        27        Al     tau(  27) = (   2.0083224   2.0083224   1.4249834  )
        28        Al     tau(  28) = (   0.5012291   0.5012291   2.1565915  )
        29        Al     tau(  29) = (   0.4971216   1.5000000   2.1725093  )
        30        Al     tau(  30) = (   0.5012291   2.4987709   2.1565915  )
        31        Al     tau(  31) = (   1.5000000   0.4971216   2.1725093  )
        32        Al     tau(  32) = (   1.5000000   1.5000000   2.0556244  )
        33        Al     tau(  33) = (   1.5000000   2.5028784   2.1725093  )
        34        Al     tau(  34) = (   2.4987709   0.5012291   2.1565915  )
        35        Al     tau(  35) = (   2.5028784   1.5000000   2.1725093  )
        36        Al     tau(  36) = (   2.4987709   2.4987709   2.1565915  )
        37        O      tau(  37) = (   1.5000000   1.5000000   2.6435558  )

     number of k points=    10  Marzari-Vanderbilt smearing, width (Ry)=  0.0500
                       cart. coord. in units 2pi/alat
        k(    1) = (   0.0208333   0.0208333   0.0000000), wk =   0.1250000
        k(    2) = (   0.0208333   0.0625000   0.0000000), wk =   0.2500000
        k(    3) = (   0.0208333   0.1041667   0.0000000), wk =   0.2500000
        k(    4) = (   0.0208333   0.1458333   0.0000000), wk =   0.2500000
        k(    5) = (   0.0625000   0.0625000   0.0000000), wk =   0.1250000
        k(    6) = (   0.0625000   0.1041667   0.0000000), wk =   0.2500000
        k(    7) = (   0.0625000   0.1458333   0.0000000), wk =   0.2500000
        k(    8) = (   0.1041667   0.1041667   0.0000000), wk =   0.1250000
        k(    9) = (   0.1041667   0.1458333   0.0000000), wk =   0.2500000
        k(   10) = (   0.1458333   0.1458333   0.0000000), wk =   0.1250000

     Dense  grid:  1092149 G-vectors     FFT dimensions: (  96,  96, 250)

     Smooth grid:   386353 G-vectors     FFT dimensions: (  72,  72, 180)

     Estimated max dynamical RAM per process >     755.24 MB

     Estimated total dynamical RAM >      10.02 GB

     Atomic positions and unit cell read from directory:
     ./tmp/Al.save/


     The initial density is read from file :
     ./tmp/Al.save/charge-density


     negative rho (up, down):  5.466E-04 0.000E+00
     Starting wfcs are  148 atomic wfcs
     Checking if some PAW data can be deallocated... 

     total cpu time spent up to now is       12.6 secs

     Self-consistent Calculation

     iteration #  1     ecut=    40.00 Ry     beta= 0.50
     Davidson diagonalization with overlap
     c_bands:  2 eigenvalues not converged
     ethr =  1.00E-05,  avg # of iterations = 21.3

     Threshold (ethr) on eigenvalues was too large:
     Diagonalizing with lowered threshold

     Davidson diagonalization with overlap
     c_bands:  1 eigenvalues not converged
     ethr =  2.27E-07,  avg # of iterations = 15.1

     negative rho (up, down):  5.944E-04 0.000E+00

     total cpu time spent up to now is       98.2 secs

     total energy              =   -1463.09424126 Ry
     estimated scf accuracy    <       0.00010347 Ry

     iteration #  2     ecut=    40.00 Ry     beta= 0.50
     Davidson diagonalization with overlap
     ethr =  9.08E-08,  avg # of iterations =  2.3

     negative rho (up, down):  6.754E-04 0.000E+00

     total cpu time spent up to now is      114.7 secs

     total energy              =   -1463.09424203 Ry
     estimated scf accuracy    <       0.00003247 Ry

     iteration #  3     ecut=    40.00 Ry     beta= 0.50
     Davidson diagonalization with overlap
     ethr =  2.85E-08,  avg # of iterations =  6.9

     negative rho (up, down):  6.877E-04 0.000E+00

     total cpu time spent up to now is      135.1 secs

     total energy              =   -1463.09424815 Ry
     estimated scf accuracy    <       0.00000090 Ry

     iteration #  4     ecut=    40.00 Ry     beta= 0.50
     Davidson diagonalization with overlap
     ethr =  7.86E-10,  avg # of iterations = 12.9

     negative rho (up, down):  6.567E-04 0.000E+00

     total cpu time spent up to now is      164.3 secs

     total energy              =   -1463.09424875 Ry
     estimated scf accuracy    <       0.00000188 Ry

     iteration #  5     ecut=    40.00 Ry     beta= 0.50
     Davidson diagonalization with overlap
     ethr =  7.86E-10,  avg # of iterations =  4.3

     negative rho (up, down):  6.531E-04 0.000E+00

     total cpu time spent up to now is      183.9 secs

     total energy              =   -1463.09424938 Ry
     estimated scf accuracy    <       0.00000180 Ry

     iteration #  6     ecut=    40.00 Ry     beta= 0.50
     Davidson diagonalization with overlap
     ethr =  7.86E-10,  avg # of iterations =  1.5

     negative rho (up, down):  6.503E-04 0.000E+00

     total cpu time spent up to now is      199.5 secs

     total energy              =   -1463.09424937 Ry
     estimated scf accuracy    <       0.00000187 Ry

     iteration #  7     ecut=    40.00 Ry     beta= 0.50
     Davidson diagonalization with overlap
     ethr =  7.86E-10,  avg # of iterations =  1.0

     negative rho (up, down):  6.275E-04 0.000E+00

     total cpu time spent up to now is      215.2 secs

     total energy              =   -1463.09424921 Ry
     estimated scf accuracy    <       0.00000168 Ry

     iteration #  8     ecut=    40.00 Ry     beta= 0.50
     Davidson diagonalization with overlap
     ethr =  7.86E-10,  avg # of iterations =  1.0

     negative rho (up, down):  5.617E-04 0.000E+00

     total cpu time spent up to now is      230.2 secs

     total energy              =   -1463.09424900 Ry
     estimated scf accuracy    <       0.00000063 Ry

     iteration #  9     ecut=    40.00 Ry     beta= 0.50
     Davidson diagonalization with overlap
     ethr =  5.56E-10,  avg # of iterations =  4.1

     negative rho (up, down):  5.586E-04 0.000E+00

     total cpu time spent up to now is      250.4 secs

     total energy              =   -1463.09424931 Ry
     estimated scf accuracy    <       0.00000118 Ry

     iteration # 10     ecut=    40.00 Ry     beta= 0.50
     Davidson diagonalization with overlap
     ethr =  5.56E-10,  avg # of iterations =  1.0

     negative rho (up, down):  5.529E-04 0.000E+00

     total cpu time spent up to now is      265.7 secs

     total energy              =   -1463.09424913 Ry
     estimated scf accuracy    <       0.00000101 Ry

     iteration # 11     ecut=    40.00 Ry     beta= 0.50
     Davidson diagonalization with overlap
     ethr =  5.56E-10,  avg # of iterations =  2.0

     negative rho (up, down):  5.467E-04 0.000E+00

     total cpu time spent up to now is      281.5 secs

     End of self-consistent calculation

          k = 0.0208 0.0208 0.0000 ( 48321 PWs)   bands (ev):

   -16.7963 -10.6529  -9.2900  -8.9085  -8.9019  -8.4134  -8.4046  -7.5698
    -7.5661  -7.1838  -7.1575  -7.0770  -7.0537  -6.7010  -6.6789  -6.2037
    -5.8642  -5.4979  -5.4315  -5.3829  -5.3734  -5.0115  -4.9332  -4.9052
    -4.3231  -3.8000  -3.3844  -3.3421  -3.3173  -3.2870  -2.9370  -2.8160
    -2.7938  -2.4849  -2.3529  -2.3468  -2.3167  -2.1938  -2.0734  -2.0530
    -1.8816  -1.8402  -1.8097  -1.7046  -1.6278  -1.5142  -1.2973  -1.0785
    -1.0158  -0.9098  -0.5765  -0.5593  -0.5591  -0.5013  -0.4841  -0.4017
    -0.2641  -0.1499  -0.0698  -0.0102   0.0466   0.1269   0.1732   0.2050
     0.2820   0.3139   0.5993   0.9535

          k = 0.0208 0.0625 0.0000 ( 48300 PWs)   bands (ev):

   -16.7963 -10.5901  -9.3403  -9.2279  -8.8431  -8.3473  -7.9959  -7.8536
    -7.6085  -7.5066  -7.1201  -7.0912  -7.0044  -6.5278  -6.2867  -6.1433
    -5.8788  -5.8013  -5.6601  -5.3926  -4.9179  -4.8451  -4.4556  -4.3777
    -4.2987  -4.2026  -4.1611  -3.7413  -3.2550  -3.1560  -2.9511  -2.9067
    -2.7238  -2.6277  -2.5784  -2.3058  -2.2801  -2.2498  -2.1965  -2.1016
    -1.9994  -1.9733  -1.8883  -1.7049  -1.4193  -1.3579  -1.2988  -1.2277
    -1.1527  -1.0435  -0.9662  -0.8876  -0.8163  -0.7306  -0.3745  -0.2803
    -0.2136  -0.0556  -0.0330   0.0506   0.2092   0.3160   0.4822   0.5920
     0.6816   0.7357   0.8492   0.9469

          k = 0.0208 0.1042 0.0000 ( 48272 PWs)   bands (ev):

   -16.7962 -10.4646  -9.7140  -9.1045  -8.7192  -8.3641  -8.2237  -7.9776
    -7.4854  -7.3844  -7.2389  -6.9737  -6.8853  -6.6494  -6.2381  -6.1589
    -5.9226  -5.5394  -5.2753  -5.0616  -5.0425  -4.8005  -4.5666  -4.2656
    -4.1839  -4.0600  -3.8583  -3.7874  -3.7609  -3.4631  -3.4051  -3.1382
    -2.9750  -2.7251  -2.4885  -2.4696  -2.3495  -2.2965  -2.1703  -2.0539
    -1.9591  -1.9363  -1.8386  -1.8206  -1.7349  -1.5920  -1.5330  -1.4163
    -1.3751  -1.2247  -1.0609  -0.9504  -0.7085  -0.5867  -0.3021  -0.2525
    -0.1528   0.0030   0.2034   0.2859   0.2901   0.4320   0.5757   0.7082
     0.8268   0.9656   1.0101   1.1214

          k = 0.0208 0.1458 0.0000 ( 48316 PWs)   bands (ev):

   -16.7962 -10.2766 -10.0263  -8.9199  -8.6713  -8.5334  -8.2861  -8.0386
    -7.7922  -7.2013  -6.9602  -6.7928  -6.7116  -6.5657  -6.5299  -6.4534
    -5.8386  -5.2520  -5.0997  -4.8864  -4.8576  -4.6197  -4.5352  -4.4161
    -4.3821  -4.1750  -3.9992  -3.7390  -3.7095  -3.5937  -3.2462  -3.1350
    -2.9833  -2.9303  -2.7373  -2.6646  -2.5697  -2.4437  -2.2933  -2.2518
    -2.0097  -1.9698  -1.8440  -1.7796  -1.7421  -1.6318  -1.6027  -1.4978
    -1.3887  -1.1539  -1.1228  -0.8932  -0.6832  -0.6502  -0.5129  -0.2303
    -0.1703   0.0568   0.2232   0.4066   0.4557   0.5195   0.7681   0.7716
     0.8323   1.0346   1.3386   1.3511

          k = 0.0625 0.0625 0.0000 ( 48243 PWs)   bands (ev):

   -16.7962 -10.5273  -9.2811  -9.2750  -9.1658  -8.0393  -7.9408  -7.9285
    -7.7973  -7.7862  -7.0268  -6.7094  -6.5802  -6.5568  -6.4697  -6.4643
    -5.8634  -5.7610  -5.2627  -5.2617  -5.1214  -4.6321  -4.4072  -4.3826
    -4.1843  -4.1566  -4.1309  -3.8434  -3.2790  -3.2298  -3.1168  -3.0738
    -3.0157  -2.9788  -2.8927  -2.8647  -2.3582  -2.2658  -2.1519  -1.9184
    -1.8950  -1.8002  -1.7440  -1.6951  -1.5873  -1.3604  -1.3232  -1.2776
    -1.0515  -0.8929  -0.7947  -0.7402  -0.7281  -0.6804  -0.6376  -0.5752
    -0.1980  -0.1019   0.0383   0.0754   0.3690   0.4078   0.5027   0.5766
     0.6136   0.6647   0.7170   0.9605

          k = 0.0625 0.1042 0.0000 ( 48290 PWs)   bands (ev):

   -16.7962 -10.4019  -9.6516  -9.1536  -9.0425  -8.4096  -8.3026  -7.8118
    -7.6691  -7.1783  -7.0816  -6.9353  -6.8979  -6.3494  -6.1745  -5.9610
    -5.8644  -5.6906  -5.6157  -4.9852  -4.9751  -4.6700  -4.5292  -4.2752
    -4.1009  -4.0265  -3.8152  -3.7940  -3.7042  -3.5724  -3.4192  -3.3319
    -3.2700  -3.0104  -2.8029  -2.6729  -2.6211  -2.5430  -2.3945  -2.2341
    -2.0889  -1.9172  -1.7727  -1.6746  -1.4896  -1.3933  -1.2633  -1.1828
    -1.0917  -1.0200  -0.7212  -0.6895  -0.6348  -0.5540  -0.4725  -0.4190
    -0.2885  -0.2122   0.0664   0.1495   0.3266   0.4443   0.6112   0.7223
     0.7541   0.8621   1.0185   1.1213

          k = 0.0625 0.1458 0.0000 ( 48296 PWs)   bands (ev):

   -16.7962 -10.2140  -9.9638  -8.9672  -8.8580  -8.7190  -8.6096  -7.6282
    -7.4850  -7.3836  -7.2396  -6.7295  -6.5054  -6.4700  -6.1623  -5.9238
    -5.7775  -5.5143  -5.2998  -5.2707  -5.1852  -4.5863  -4.4755  -4.1017
    -4.0166  -3.9591  -3.8918  -3.8527  -3.8415  -3.6688  -3.6169  -3.3155
    -3.2181  -3.1821  -2.8693  -2.7009  -2.6597  -2.5928  -2.5231  -2.3584
    -2.1669  -2.1189  -1.8925  -1.7561  -1.6529  -1.4575  -1.3623  -1.1928
    -1.0915  -1.0187  -0.8633  -0.7076  -0.5117  -0.4604  -0.3673  -0.2308
    -0.0309  -0.0110   0.1392   0.1683   0.3219   0.4740   0.5704   0.6603
     0.8088   0.8895   1.0537   1.2966

          k = 0.1042 0.1042 0.0000 ( 48279 PWs)   bands (ev):

   -16.7962 -10.2766  -9.5294  -9.5244  -8.9192  -8.7809  -8.1877  -8.1716
    -7.4448  -7.0621  -7.0490  -6.7830  -6.3363  -6.3127  -6.1077  -6.0022
    -5.7468  -5.7339  -5.3281  -5.0259  -5.0246  -4.8739  -4.8499  -4.1658
    -4.1429  -4.0003  -3.9458  -3.6911  -3.6877  -3.5971  -3.5860  -3.3729
    -3.2416  -3.0332  -3.0190  -2.9549  -2.8515  -2.7159  -2.6723  -2.3690
    -2.1202  -1.9134  -1.8654  -1.6068  -1.4746  -1.3779  -1.1170  -0.9851
    -0.9621  -0.9309  -0.8794  -0.7107  -0.6713  -0.5417  -0.3611  -0.1785
    -0.1420  -0.0447   0.0117   0.1456   0.1477   0.4386   0.6779   0.8934
     1.0129   1.0810   1.1487   1.2197

          k = 0.1042 0.1458 0.0000 ( 48240 PWs)   bands (ev):

   -16.7962 -10.0888  -9.8388  -9.3400  -9.0913  -8.7346  -8.4868  -7.9955
    -7.7500  -6.8726  -6.6299  -6.6080  -6.3837  -6.3540  -5.8736  -5.6635
    -5.6565  -5.6280  -5.5504  -5.3202  -5.0697  -4.9402  -4.6849  -4.4495
    -4.3681  -4.3452  -3.8375  -3.6630  -3.5934  -3.5137  -3.4175  -3.3397
    -3.2863  -3.1803  -3.1371  -3.0710  -2.9407  -2.7363  -2.4643  -2.4514
    -2.1706  -1.9704  -1.8304  -1.7965  -1.5028  -1.4322  -1.3845  -1.2275
    -1.1552  -0.9396  -0.7556  -0.7022  -0.5642  -0.2994  -0.2051  -0.1407
    -0.0669  -0.0208   0.0857   0.2530   0.4784   0.5694   0.7736   0.7780
     0.9008   1.1463   1.2019   1.2405

          k = 0.1458 0.1458 0.0000 ( 48241 PWs)   bands (ev):

   -16.7962  -9.9012  -9.6538  -9.6492  -9.4022  -8.5500  -8.3115  -8.2935
    -8.0558  -6.4332  -6.2313  -6.2108  -6.1931  -6.1287  -5.9704  -5.9478
    -5.9019  -5.4927  -5.4638  -5.2484  -5.2268  -4.9040  -4.8787  -4.6551
    -4.6507  -4.1894  -4.1754  -3.9679  -3.9198  -3.6638  -3.4912  -3.3562
    -3.1865  -2.9991  -2.8676  -2.7824  -2.7011  -2.6809  -2.4750  -2.4123
    -2.2384  -2.0650  -1.9138  -1.8194  -1.6196  -1.5035  -1.3820  -1.2285
    -1.1906  -1.1000  -0.9602  -0.9149  -0.8304  -0.4801  -0.0526   0.0706
     0.2634   0.3179   0.3556   0.5540   0.6147   0.6454   0.7768   0.8085
     0.8545   0.9709   0.9984   1.0474

     the Fermi energy is    -0.0950 ev

!    total energy              =   -1463.09424920 Ry
     total all-electron energy =    -17633.081279 Ry
     estimated scf accuracy    <       0.00000001 Ry
     smearing contrib. (-TS)   =       0.00197879 Ry
     internal energy E=F+TS    =   -1463.09622799 Ry

     The total energy is F=E-TS. E is the sum of the following terms:
     one-electron contribution =   -1641.80366803 Ry
     hartree contribution      =     849.56507776 Ry
     xc contribution           =     -98.56103820 Ry
     ewald contribution        =     685.66189529 Ry
     one-center paw contrib.   =   -1257.95849482 Ry

     convergence has been achieved in  11 iterations

     negative rho (up, down):  5.467E-04 0.000E+00

     Forces acting on atoms (cartesian axes, Ry/au):

     atom    1 type  1   force =     0.00000000    0.00000000   -0.00491871
     atom    2 type  1   force =     0.00000000    0.00039265   -0.00545083
     atom    3 type  1   force =     0.00000000   -0.00039265   -0.00545083
     atom    4 type  1   force =     0.00039265    0.00000000   -0.00545083
     atom    5 type  1   force =    -0.00020017   -0.00020017   -0.00416971
     atom    6 type  1   force =    -0.00020017    0.00020017   -0.00416971
     atom    7 type  1   force =    -0.00039265    0.00000000   -0.00545083
     atom    8 type  1   force =     0.00020017   -0.00020017   -0.00416971
     atom    9 type  1   force =     0.00020017    0.00020017   -0.00416971
     atom   10 type  1   force =    -0.00156536   -0.00156536    0.00409824
     atom   11 type  1   force =    -0.00038771    0.00000000    0.00465672
     atom   12 type  1   force =    -0.00156536    0.00156536    0.00409824
     atom   13 type  1   force =     0.00000000   -0.00038771    0.00465672
     atom   14 type  1   force =     0.00000000    0.00000000    0.00635032
     atom   15 type  1   force =     0.00000000    0.00038771    0.00465672
     atom   16 type  1   force =     0.00156536   -0.00156536    0.00409824
     atom   17 type  1   force =     0.00038771    0.00000000    0.00465672
     atom   18 type  1   force =     0.00156536    0.00156536    0.00409824
     atom   19 type  1   force =     0.00000000    0.00000000    0.00017493
     atom   20 type  1   force =     0.00000000   -0.00002401   -0.00019947
     atom   21 type  1   force =     0.00000000    0.00002401   -0.00019947
     atom   22 type  1   force =    -0.00002401    0.00000000   -0.00019947
     atom   23 type  1   force =    -0.00002317   -0.00002317   -0.00022709
     atom   24 type  1   force =    -0.00002317    0.00002317   -0.00022709
     atom   25 type  1   force =     0.00002401    0.00000000   -0.00019947
     atom   26 type  1   force =     0.00002317   -0.00002317   -0.00022709
     atom   27 type  1   force =     0.00002317    0.00002317   -0.00022709
     atom   28 type  1   force =     0.00006869    0.00006869    0.00041381
     atom   29 type  1   force =    -0.00001779    0.00000000    0.00037275
     atom   30 type  1   force =     0.00006869   -0.00006869    0.00041381
     atom   31 type  1   force =     0.00000000   -0.00001779    0.00037275
     atom   32 type  1   force =     0.00000000    0.00000000    0.00049788
     atom   33 type  1   force =     0.00000000    0.00001779    0.00037275
     atom   34 type  1   force =    -0.00006869    0.00006869    0.00041381
     atom   35 type  1   force =     0.00001779    0.00000000    0.00037275
     atom   36 type  1   force =    -0.00006869   -0.00006869    0.00041381
     atom   37 type  2   force =     0.00000000    0.00000000   -0.00008209

     Total force =     0.001392     Total SCF correction =     0.000141
     SCF correction compared to forces is large: reduce conv_thr to get better values

     BFGS Geometry Optimization
     Energy error            =      0.0E+00 Ry
     Gradient error          =      5.0E-04 Ry/Bohr

     bfgs converged in   1 scf cycles and   0 bfgs steps
     (criteria: energy <  1.0E-04 Ry, force <  1.0E-03 Ry/Bohr)

     End of BFGS Geometry Optimization

     Final energy             =   -1463.0942492024 Ry
Begin final coordinates

ATOMIC_POSITIONS (alat)
Al               0.0000000000        0.0000000000        0.0000000000    0   0   0
Al               0.0000000000        0.9999999970        0.0000000000    0   0   0
Al               0.0000000000        1.9999999944        0.0000000000    0   0   0
Al               0.9999999970        0.0000000000        0.0000000000    0   0   0
Al               0.9999999970        0.9999999970        0.0000000000    0   0   0
Al               0.9999999970        1.9999999944        0.0000000000    0   0   0
Al               1.9999999944        0.0000000000        0.0000000000    0   0   0
Al               1.9999999944        0.9999999970        0.0000000000    0   0   0
Al               1.9999999944        1.9999999944        0.0000000000    0   0   0
Al               0.4999999986        0.4999999986        0.7071067670    0   0   0
Al               0.4999999986        1.4999999958        0.7071067670    0   0   0
Al               0.4999999986        2.4999999929        0.7071067670    0   0   0
Al               1.4999999958        0.4999999986        0.7071067670    0   0   0
Al               1.4999999958        1.4999999958        0.7071067670    0   0   0
Al               1.4999999958        2.4999999929        0.7071067670    0   0   0
Al               2.4999999929        0.4999999986        0.7071067670    0   0   0
Al               2.4999999929        1.4999999958        0.7071067670    0   0   0
Al               2.4999999929        2.4999999929        0.7071067670    0   0   0
Al               0.0000000000        0.0000000000        1.4291457179
Al               0.0000000000        1.0007151822        1.4309395020
Al               0.0000000000        1.9992848093        1.4309395020
Al               1.0007151822        0.0000000000        1.4309395020
Al               0.9916775500        0.9916775500        1.4249834437
Al               0.9916775500        2.0083224414        1.4249834437
Al               1.9992848093        0.0000000000        1.4309395020
Al               2.0083224414        0.9916775500        1.4249834437
Al               2.0083224414        2.0083224414        1.4249834437
Al               0.5012291195        0.5012291195        2.1565914875
Al               0.4971216339        1.4999999958        2.1725092986
Al               0.5012291195        2.4987708720        2.1565914875
Al               1.4999999958        0.4971216339        2.1725092986
Al               1.4999999958        1.4999999958        2.0556244476
Al               1.4999999958        2.5028783576        2.1725092986
Al               2.4987708720        0.5012291195        2.1565914875
Al               2.5028783576        1.4999999958        2.1725092986
Al               2.4987708720        2.4987708720        2.1565914875
O                1.4999999993        1.4999999993        2.6435558304    0   0   1
End final coordinates



     Writing all to output data dir ./tmp/Al.save/ :
     XML data file, charge density, pseudopotentials, collected wavefunctions

     init_run     :     11.37s CPU     12.29s WALL (       1 calls)
     electrons    :    257.72s CPU    269.09s WALL (       1 calls)
     forces       :      5.99s CPU      6.42s WALL (       1 calls)

     Called by init_run:
     wfcinit      :      8.01s CPU      8.51s WALL (       1 calls)
     potinit      :      1.31s CPU      1.52s WALL (       1 calls)
     hinit0       :      0.83s CPU      0.88s WALL (       1 calls)

     Called by electrons:
     c_bands      :    188.35s CPU    193.67s WALL (      12 calls)
     sum_band     :     34.98s CPU     37.60s WALL (      12 calls)
     v_of_rho     :      8.92s CPU     10.00s WALL (      12 calls)
     newd         :      5.89s CPU      7.42s WALL (      12 calls)
     PAW_pot      :      4.91s CPU      4.91s WALL (      12 calls)
     mix_rho      :     15.08s CPU     15.94s WALL (      12 calls)

     Called by c_bands:
     init_us_2    :      7.67s CPU      7.82s WALL (      52 calls)
     cegterg      :    170.92s CPU    175.79s WALL (      25 calls)

     Called by *egterg:
     cdiaghg      :      1.03s CPU      1.04s WALL (     186 calls)
     h_psi        :    136.41s CPU    140.91s WALL (     191 calls)
     s_psi        :     20.74s CPU     20.76s WALL (     191 calls)
     g_psi        :      0.37s CPU      0.37s WALL (     164 calls)

     Called by h_psi:
     h_psi:calbec :     18.76s CPU     19.15s WALL (     191 calls)
     vloc_psi     :     96.50s CPU    100.09s WALL (     191 calls)
     add_vuspsi   :     20.61s CPU     20.67s WALL (     191 calls)

     General routines
     calbec       :     24.43s CPU     24.92s WALL (     223 calls)
     fft          :      6.06s CPU      6.88s WALL (     166 calls)
     ffts         :      6.72s CPU      7.31s WALL (    1254 calls)
     fftw         :     70.00s CPU     72.74s WALL (   13978 calls)
     interpolate  :      0.70s CPU      0.79s WALL (      12 calls)

     Parallel routines

     PWSCF        :   4m35.40s CPU   4m49.36s WALL


   This run was terminated on:  15:16:44  19May2025            

=------------------------------------------------------------------------------=
   JOB DONE.
=------------------------------------------------------------------------------=
