No protocol specified

     Program PWSCF v.7.3.1 starts on 19May2025 at 15:39:31 

     This program is part of the open-source Quantum ESPRESSO suite
     for quantum simulation of materials; please cite
         "P. Giannozzi et al., J. Phys.:Condens. Matter 21 395502 (2009);
         "P. Giannozzi et al., J. Phys.:Condens. Matter 29 465901 (2017);
         "P. Giannozzi et al., J. Chem. Phys. 152 154105 (2020);
          URL http://www.quantum-espresso.org", 
     in publications or presentations arising from this work. More details at
     http://www.quantum-espresso.org/quote

     Parallel version (MPI), running on    14 processors

     MPI processes distributed on     1 nodes
     24994 MiB available memory on the printing compute node when the environment starts

     Waiting for input...
     Reading input from standard input

     Current dimensions of program PWSCF are:
     Max number of different atomic species (ntypx) = 10
     Max number of k-points (npk) =  40000
     Max angular momentum in pseudopotentials (lmaxx) =  4
     Message from routine input:
     WARNING: "startingwfc" set to atomic may spoil restart
     file Al.pbe-n-kjpaw_psl.1.0.0.UPF: wavefunction(s)  3S 3P renormalized
     file O.pbe-n-kjpaw_psl.0.1.UPF: wavefunction(s)  2P renormalized
     Message from routine setup:
     using ibrav=0 with symmetry is DISCOURAGED, use correct ibrav instead

     K-points division:     npool     =       7
     R & G space division:  proc/nbgrp/npool/nimage =       2
     Subspace diagonalization in iterative solution of the eigenvalue problem:
     a serial algorithm will be used


     Parallelization info
     --------------------
     sticks:   dense  smooth     PW     G-vecs:    dense   smooth      PW
     Min        3332    1670    442               546072   193176   27050
     Max        3333    1671    443               546077   193177   27061
     Sum        6665    3341    885              1092149   386353   54111

     Using Slab Decomposition



     bravais-lattice index     =            0
     lattice parameter (alat)  =       5.3944  a.u.
     unit-cell volume          =   11302.2493 (a.u.)^3
     number of atoms/cell      =           37
     number of atomic types    =            2
     number of electrons       =       114.00
     number of Kohn-Sham states=           68
     kinetic-energy cutoff     =      40.0000  Ry
     charge density cutoff     =     320.0000  Ry
     scf convergence threshold =      1.0E-07
     mixing beta               =       0.5000
     number of iterations used =            8  local-TF  mixing
     energy convergence thresh.=      1.0E-04
     force convergence thresh. =      1.0E-03
     Exchange-correlation= SLA  PW   PBX  PBC
                           (   1   4   3   4   0   0   0)
     nstep                     =           50


     celldm(1)=   5.394412  celldm(2)=   0.000000  celldm(3)=   0.000000
     celldm(4)=   0.000000  celldm(5)=   0.000000  celldm(6)=   0.000000

     crystal axes: (cart. coord. in units of alat)
               a(1) = (   3.000000   0.000000   0.000000 )  
               a(2) = (   0.000000   3.000000   0.000000 )  
               a(3) = (   0.000000   0.000000   8.000000 )  

     reciprocal axes: (cart. coord. in units 2 pi/alat)
               b(1) = (  0.333333  0.000000  0.000000 )  
               b(2) = (  0.000000  0.333333  0.000000 )  
               b(3) = (  0.000000  0.000000  0.125000 )  


     PseudoPot. # 1 for Al read from file:
     ../../Pseudo/Al.pbe-n-kjpaw_psl.1.0.0.UPF
     MD5 check sum: dd5adf945272da8132fc805c9e56c2d6
     Pseudo is Projector augmented-wave + core cor, Zval =  3.0
     Generated using "atomic" code by A. Dal Corso  v.5.1
     Shape of augmentation charge: PSQ
     Using radial grid of 1135 points,  6 beta functions with: 
                l(1) =   0
                l(2) =   0
                l(3) =   1
                l(4) =   1
                l(5) =   2
                l(6) =   2
     Q(r) pseudized with 0 coefficients 


     PseudoPot. # 2 for O  read from file:
     ../../Pseudo/O.pbe-n-kjpaw_psl.0.1.UPF
     MD5 check sum: 0234752ac141de4415c5fc33072bef88
     Pseudo is Projector augmented-wave + core cor, Zval =  6.0
     Generated using "atomic" code by A. Dal Corso  v.5.0.99 svn rev. 10869
     Shape of augmentation charge: BESSEL
     Using radial grid of 1095 points,  4 beta functions with: 
                l(1) =   0
                l(2) =   0
                l(3) =   1
                l(4) =   1
     Q(r) pseudized with 0 coefficients 


     atomic species   valence    mass     pseudopotential
     Al                3.00     1.00000     Al( 1.00)
     O                 6.00     1.00000     O ( 1.00)

      8 Sym. Ops. (no inversion) found



   Cartesian axes

     site n.     atom                  positions (alat units)
         1        Al     tau(   1) = (   0.0000000   0.0000000   0.0000000  )
         2        Al     tau(   2) = (   0.0000000   1.0000000   0.0000000  )
         3        Al     tau(   3) = (   0.0000000   2.0000000   0.0000000  )
         4        Al     tau(   4) = (   1.0000000   0.0000000   0.0000000  )
         5        Al     tau(   5) = (   1.0000000   1.0000000   0.0000000  )
         6        Al     tau(   6) = (   1.0000000   2.0000000   0.0000000  )
         7        Al     tau(   7) = (   2.0000000   0.0000000   0.0000000  )
         8        Al     tau(   8) = (   2.0000000   1.0000000   0.0000000  )
         9        Al     tau(   9) = (   2.0000000   2.0000000   0.0000000  )
        10        Al     tau(  10) = (   0.5000000   0.5000000   0.7071068  )
        11        Al     tau(  11) = (   0.5000000   1.5000000   0.7071068  )
        12        Al     tau(  12) = (   0.5000000   2.5000000   0.7071068  )
        13        Al     tau(  13) = (   1.5000000   0.5000000   0.7071068  )
        14        Al     tau(  14) = (   1.5000000   1.5000000   0.7071068  )
        15        Al     tau(  15) = (   1.5000000   2.5000000   0.7071068  )
        16        Al     tau(  16) = (   2.5000000   0.5000000   0.7071068  )
        17        Al     tau(  17) = (   2.5000000   1.5000000   0.7071068  )
        18        Al     tau(  18) = (   2.5000000   2.5000000   0.7071068  )
        19        Al     tau(  19) = (   0.0000000   0.0000000   1.4291457  )
        20        Al     tau(  20) = (   0.0000000   1.0007152   1.4309395  )
        21        Al     tau(  21) = (   0.0000000   1.9992848   1.4309395  )
        22        Al     tau(  22) = (   1.0007152   0.0000000   1.4309395  )
        23        Al     tau(  23) = (   0.9916776   0.9916776   1.4249834  )
        24        Al     tau(  24) = (   0.9916776   2.0083224   1.4249834  )
        25        Al     tau(  25) = (   1.9992848   0.0000000   1.4309395  )
        26        Al     tau(  26) = (   2.0083224   0.9916776   1.4249834  )
        27        Al     tau(  27) = (   2.0083224   2.0083224   1.4249834  )
        28        Al     tau(  28) = (   0.5012291   0.5012291   2.1565915  )
        29        Al     tau(  29) = (   0.4971216   1.5000000   2.1725093  )
        30        Al     tau(  30) = (   0.5012291   2.4987709   2.1565915  )
        31        Al     tau(  31) = (   1.5000000   0.4971216   2.1725093  )
        32        Al     tau(  32) = (   1.5000000   1.5000000   2.0556244  )
        33        Al     tau(  33) = (   1.5000000   2.5028784   2.1725093  )
        34        Al     tau(  34) = (   2.4987709   0.5012291   2.1565915  )
        35        Al     tau(  35) = (   2.5028784   1.5000000   2.1725093  )
        36        Al     tau(  36) = (   2.4987709   2.4987709   2.1565915  )
        37        O      tau(  37) = (   1.5000000   1.5000000   2.6435558  )

     number of k points=    21  Marzari-Vanderbilt smearing, width (Ry)=  0.0500
                       cart. coord. in units 2pi/alat
        k(    1) = (   0.0138889   0.0138889   0.0000000), wk =   0.0555556
        k(    2) = (   0.0138889   0.0416667   0.0000000), wk =   0.1111111
        k(    3) = (   0.0138889   0.0694444   0.0000000), wk =   0.1111111
        k(    4) = (   0.0138889   0.0972222   0.0000000), wk =   0.1111111
        k(    5) = (   0.0138889   0.1250000   0.0000000), wk =   0.1111111
        k(    6) = (   0.0138889   0.1527778   0.0000000), wk =   0.1111111
        k(    7) = (   0.0416667   0.0416667   0.0000000), wk =   0.0555556
        k(    8) = (   0.0416667   0.0694444   0.0000000), wk =   0.1111111
        k(    9) = (   0.0416667   0.0972222   0.0000000), wk =   0.1111111
        k(   10) = (   0.0416667   0.1250000   0.0000000), wk =   0.1111111
        k(   11) = (   0.0416667   0.1527778   0.0000000), wk =   0.1111111
        k(   12) = (   0.0694444   0.0694444   0.0000000), wk =   0.0555556
        k(   13) = (   0.0694444   0.0972222   0.0000000), wk =   0.1111111
        k(   14) = (   0.0694444   0.1250000   0.0000000), wk =   0.1111111
        k(   15) = (   0.0694444   0.1527778   0.0000000), wk =   0.1111111
        k(   16) = (   0.0972222   0.0972222   0.0000000), wk =   0.0555556
        k(   17) = (   0.0972222   0.1250000   0.0000000), wk =   0.1111111
        k(   18) = (   0.0972222   0.1527778   0.0000000), wk =   0.1111111
        k(   19) = (   0.1250000   0.1250000   0.0000000), wk =   0.0555556
        k(   20) = (   0.1250000   0.1527778   0.0000000), wk =   0.1111111
        k(   21) = (   0.1527778   0.1527778   0.0000000), wk =   0.0555556

     Dense  grid:  1092149 G-vectors     FFT dimensions: (  96,  96, 250)

     Smooth grid:   386353 G-vectors     FFT dimensions: (  72,  72, 180)

     Estimated max dynamical RAM per process >    1016.75 MB

     Estimated total dynamical RAM >      12.34 GB

     Atomic positions and unit cell read from directory:
     ./tmp/Al.save/


     The initial density is read from file :
     ./tmp/Al.save/charge-density


     negative rho (up, down):  5.467E-04 0.000E+00
     Starting wfcs are  148 atomic wfcs
     Checking if some PAW data can be deallocated... 

     total cpu time spent up to now is       22.9 secs

     Self-consistent Calculation

     iteration #  1     ecut=    40.00 Ry     beta= 0.50
     Davidson diagonalization with overlap
     c_bands:  2 eigenvalues not converged
     c_bands:  3 eigenvalues not converged
     ethr =  1.00E-05,  avg # of iterations = 20.9

     Threshold (ethr) on eigenvalues was too large:
     Diagonalizing with lowered threshold

     Davidson diagonalization with overlap
     c_bands:  1 eigenvalues not converged
     c_bands:  2 eigenvalues not converged
     ethr =  5.06E-08,  avg # of iterations = 17.4

     negative rho (up, down):  5.484E-04 0.000E+00

     total cpu time spent up to now is      217.5 secs

     total energy              =   -1463.09428283 Ry
     estimated scf accuracy    <       0.00000063 Ry

     iteration #  2     ecut=    40.00 Ry     beta= 0.50
     Davidson diagonalization with overlap
     ethr =  5.52E-10,  avg # of iterations = 14.5

     negative rho (up, down):  5.488E-04 0.000E+00

     total cpu time spent up to now is      277.7 secs

     total energy              =   -1463.09428479 Ry
     estimated scf accuracy    <       0.00000012 Ry

     iteration #  3     ecut=    40.00 Ry     beta= 0.50
     Davidson diagonalization with overlap
     ethr =  1.09E-10,  avg # of iterations =  4.4

     negative rho (up, down):  5.467E-04 0.000E+00

     total cpu time spent up to now is      310.7 secs

     End of self-consistent calculation

          k = 0.0139 0.0139 0.0000 ( 48331 PWs)   bands (ev):

   -16.7966 -10.6610  -9.2982  -8.8340  -8.8274  -8.5037  -8.4950  -7.4959
    -7.4942  -7.2013  -7.1669  -7.1104  -7.0238  -6.7089  -6.6868  -6.3730
    -5.7118  -5.4259  -5.4007  -5.3900  -5.3499  -5.1004  -5.0728  -5.0084
    -4.3297  -3.6586  -3.3864  -3.3424  -3.1762  -3.1433  -3.0759  -2.7708
    -2.7374  -2.5748  -2.4876  -2.4857  -2.3985  -2.1254  -2.0198  -1.9739
    -1.7633  -1.7419  -1.6982  -1.6024  -1.5961  -1.5777  -1.3779  -1.2231
    -1.1495  -0.7882  -0.5240  -0.5228  -0.4424  -0.4418  -0.4328  -0.3647
    -0.2508  -0.1493  -0.1081  -0.0726   0.0308   0.0393   0.0595   0.0682
     0.3278   0.3720   0.5735   0.8938

          k = 0.0139 0.0417 0.0000 ( 48320 PWs)   bands (ev):

   -16.7966 -10.6331  -9.2708  -9.1338  -8.8031  -8.4719  -8.1426  -7.7928
    -7.4678  -7.3239  -7.1627  -7.1001  -6.9959  -6.8108  -6.3465  -6.0242
    -6.0051  -5.6938  -5.6731  -5.3562  -5.0539  -5.0267  -4.7304  -4.7184
    -4.3080  -3.9320  -3.7675  -3.6303  -3.1433  -3.0555  -2.9816  -2.7996
    -2.7244  -2.5603  -2.4742  -2.4282  -2.2019  -2.1878  -2.0519  -2.0052
    -1.9824  -1.8660  -1.8396  -1.8132  -1.6547  -1.4082  -1.3438  -1.1578
    -1.0406  -0.8498  -0.7907  -0.7365  -0.5750  -0.5546  -0.4466  -0.3264
    -0.2967  -0.1659  -0.0635  -0.0217   0.1309   0.2123   0.2560   0.3659
     0.3784   0.5257   0.7085   0.9401

          k = 0.0139 0.0694 0.0000 ( 48291 PWs)   bands (ev):

   -16.7966 -10.5773  -9.4105  -9.2155  -8.7480  -8.4170  -8.0652  -7.7592
    -7.5960  -7.4134  -7.2683  -7.1075  -7.0467  -6.4351  -6.2747  -5.9734
    -5.9598  -5.9306  -5.6477  -5.3046  -4.9812  -4.6773  -4.3858  -4.3525
    -4.3506  -4.2824  -4.1527  -3.8768  -3.2143  -3.1030  -3.0758  -2.8063
    -2.6962  -2.6345  -2.5719  -2.4366  -2.4161  -2.2997  -2.1396  -2.0459
    -1.9923  -1.9136  -1.8224  -1.6945  -1.4816  -1.4254  -1.3030  -1.2039
    -1.1683  -1.1391  -1.0904  -0.9542  -0.8094  -0.7464  -0.4358  -0.1922
    -0.1570  -0.0657   0.1002   0.1515   0.1847   0.4219   0.5104   0.5488
     0.6826   0.7856   0.8986   0.9456

          k = 0.0139 0.0972 0.0000 ( 48293 PWs)   bands (ev):

   -16.7966 -10.4937  -9.6597  -9.1332  -8.6654  -8.3350  -8.3102  -7.8420
    -7.5138  -7.3514  -7.3294  -7.0258  -6.9689  -6.5168  -6.2086  -6.1665
    -6.0291  -5.5675  -5.2480  -5.2256  -4.9106  -4.9031  -4.4448  -4.2921
    -4.2109  -4.0895  -3.9684  -3.9470  -3.6352  -3.4184  -3.2081  -3.0102
    -2.9248  -2.6966  -2.5325  -2.3464  -2.3292  -2.3147  -2.2125  -2.0384
    -1.9313  -1.8996  -1.8683  -1.7353  -1.6642  -1.6276  -1.5679  -1.4856
    -1.2796  -1.2159  -1.0766  -0.9213  -0.7075  -0.6489  -0.4742  -0.3359
    -0.0979   0.1422   0.1986   0.2694   0.4032   0.4484   0.6300   0.7030
     0.7933   0.8562   0.9020   0.9762

          k = 0.0139 0.1250 0.0000 ( 48304 PWs)   bands (ev):

   -16.7966 -10.3822  -9.8816  -9.0236  -8.5555  -8.5290  -8.2248  -8.0609
    -7.7319  -7.2234  -6.9273  -6.9042  -6.8684  -6.7302  -6.4246  -6.3713
    -5.6180  -5.4314  -5.1418  -5.1203  -4.8271  -4.8007  -4.6416  -4.3377
    -4.1645  -4.0753  -3.8854  -3.7016  -3.6375  -3.5608  -3.5322  -3.3958
    -2.9113  -2.6748  -2.5227  -2.4924  -2.4289  -2.2799  -2.2405  -2.1696
    -2.0857  -1.9817  -1.8798  -1.8208  -1.7679  -1.6792  -1.6366  -1.4488
    -1.3005  -1.2259  -1.1059  -0.9842  -0.8437  -0.5291  -0.4092  -0.2921
     0.0036   0.0382   0.2241   0.3476   0.4021   0.5451   0.6231   0.6808
     0.8967   1.0021   1.1494   1.2265

          k = 0.0139 0.1528 0.0000 ( 48302 PWs)   bands (ev):

   -16.7966 -10.2430 -10.0761  -8.8873  -8.7200  -8.4179  -8.2531  -8.0876
    -7.9232  -7.0880  -6.9277  -6.7808  -6.7470  -6.6134  -6.5399  -6.4515
    -5.9663  -5.1413  -4.9917  -4.8354  -4.6916  -4.6733  -4.6526  -4.5099
    -4.3760  -4.2203  -3.9824  -3.9118  -3.7593  -3.4222  -3.1657  -3.0844
    -2.9915  -2.7898  -2.7559  -2.6459  -2.6137  -2.4944  -2.3253  -2.2388
    -2.1242  -2.0180  -1.9376  -1.8127  -1.7066  -1.6050  -1.5255  -1.4406
    -1.3107  -1.2078  -1.0575  -0.9198  -0.7629  -0.6787  -0.6752  -0.3679
    -0.1088   0.1248   0.2161   0.3954   0.4250   0.6366   0.7874   0.9339
     1.0277   1.0928   1.2248   1.4264

          k = 0.0417 0.0417 0.0000 ( 48283 PWs)   bands (ev):

   -16.7966 -10.6052  -9.2434  -9.1091  -9.1033  -8.1200  -8.1106  -7.7696
    -7.7615  -7.6232  -7.1017  -6.7853  -6.7835  -6.6543  -6.6325  -6.3012
    -5.6953  -5.6752  -5.6044  -5.3375  -5.3349  -4.7237  -4.6712  -4.3949
    -4.3132  -4.1734  -3.7541  -3.7276  -3.3337  -3.2941  -2.9700  -2.9500
    -2.5859  -2.5641  -2.4837  -2.3908  -2.3852  -2.1976  -2.0977  -2.0197
    -1.9657  -1.9626  -1.8559  -1.8179  -1.6500  -1.3288  -1.2696  -1.1106
    -1.0291  -0.9705  -0.7683  -0.6752  -0.6663  -0.5729  -0.4989  -0.4128
    -0.3949  -0.3642  -0.0463   0.0208   0.2065   0.3555   0.3839   0.4228
     0.6873   0.7455   0.8067   0.8276

          k = 0.0417 0.0694 0.0000 ( 48291 PWs)   bands (ev):

   -16.7966 -10.5494  -9.3829  -9.1882  -9.0509  -8.0614  -8.0372  -7.8966
    -7.7328  -7.7097  -7.0483  -6.9146  -6.7306  -6.5698  -6.4083  -6.2651
    -5.9202  -5.6169  -5.5739  -5.3016  -4.9662  -4.6484  -4.4977  -4.3456
    -4.3239  -4.2004  -4.0157  -3.6890  -3.5573  -3.1961  -3.0689  -3.0078
    -2.9412  -2.8806  -2.6371  -2.4646  -2.4195  -2.2465  -2.1706  -1.9826
    -1.9437  -1.8369  -1.7883  -1.7006  -1.6426  -1.4505  -1.2171  -1.1882
    -1.1048  -0.9772  -0.9501  -0.8680  -0.7783  -0.6046  -0.5277  -0.3678
    -0.2857  -0.2396   0.0696   0.1888   0.2731   0.4343   0.4919   0.6048
     0.6626   0.7468   0.7908   0.9949

          k = 0.0417 0.0972 0.0000 ( 48284 PWs)   bands (ev):

   -16.7966 -10.4658  -9.6320  -9.1059  -8.9682  -8.2834  -8.1432  -7.9781
    -7.6296  -7.3221  -7.1594  -6.9710  -6.8096  -6.6503  -6.1580  -6.0030
    -5.8622  -5.8433  -5.5101  -4.9051  -4.8839  -4.7290  -4.5747  -4.5596
    -4.1643  -3.9359  -3.7798  -3.6377  -3.6199  -3.5983  -3.4762  -3.3963
    -2.8940  -2.8418  -2.6511  -2.6142  -2.4380  -2.3413  -2.3028  -2.1344
    -1.9170  -1.8410  -1.7369  -1.7035  -1.6657  -1.5719  -1.3514  -1.3173
    -1.2669  -1.0676  -1.0585  -0.7591  -0.6254  -0.4692  -0.3714  -0.3000
    -0.2630  -0.1957  -0.0171   0.1943   0.3966   0.4413   0.5318   0.6627
     0.7812   0.8331   0.9392   1.1411

          k = 0.0417 0.1250 0.0000 ( 48328 PWs)   bands (ev):

   -16.7966 -10.3543  -9.8539  -8.9962  -8.8579  -8.5019  -8.3626  -7.8687
    -7.5209  -7.3771  -7.0360  -6.8876  -6.8551  -6.5459  -6.3629  -6.0573
    -5.5925  -5.4330  -5.4079  -5.4028  -4.9335  -4.4869  -4.4570  -4.1793
    -4.1419  -4.0747  -3.9805  -3.9622  -3.6064  -3.5121  -3.5043  -3.2475
    -3.0900  -3.0502  -2.8348  -2.7330  -2.4686  -2.3382  -2.3022  -2.1987
    -2.0637  -1.8964  -1.8263  -1.7788  -1.6257  -1.6185  -1.4824  -1.3994
    -1.2529  -1.2122  -1.0381  -0.7898  -0.5858  -0.4837  -0.2240  -0.2053
    -0.0586   0.0418   0.0920   0.2353   0.2520   0.2866   0.4896   0.6342
     0.7518   0.9480   1.2371   1.3891

          k = 0.0417 0.1528 0.0000 ( 48301 PWs)   bands (ev):

   -16.7965 -10.2151 -10.0483  -8.8599  -8.7202  -8.6926  -8.5549  -7.7320
    -7.5681  -7.3850  -7.2227  -6.7362  -6.5507  -6.4278  -6.3981  -6.2438
    -5.9393  -5.2807  -5.1293  -5.0977  -4.9793  -4.6373  -4.5059  -4.3314
    -4.1829  -4.0407  -3.9535  -3.7582  -3.6795  -3.5822  -3.3803  -3.2607
    -3.2062  -3.1132  -2.7986  -2.7456  -2.6748  -2.4739  -2.3753  -2.1934
    -2.1323  -1.9926  -1.9051  -1.7193  -1.6456  -1.5039  -1.4927  -1.4320
    -1.3613  -1.2006  -1.0688  -0.8428  -0.5822  -0.3496  -0.2334  -0.1134
    -0.0871  -0.0068   0.0529   0.1251   0.3287   0.4747   0.5988   0.7155
     0.9437   0.9630   1.1284   1.3021

          k = 0.0694 0.0694 0.0000 ( 48265 PWs)   bands (ev):

   -16.7966 -10.4936  -9.3304  -9.3246  -9.1330  -8.1706  -7.9898  -7.9770
    -7.6825  -7.6712  -6.9974  -6.8362  -6.5472  -6.5239  -6.3588  -6.3502
    -5.9122  -5.8064  -5.2305  -5.2300  -4.9314  -4.7529  -4.2952  -4.2933
    -4.2806  -4.2581  -4.1453  -3.6605  -3.2680  -3.2303  -3.1845  -3.1792
    -3.1449  -3.0995  -3.0182  -2.9857  -2.3630  -2.2945  -2.1939  -1.9704
    -1.9271  -1.8689  -1.8282  -1.6226  -1.5454  -1.4290  -1.1593  -1.0953
    -1.0115  -0.9347  -0.8595  -0.7867  -0.6965  -0.6814  -0.6294  -0.6203
    -0.2105  -0.1062   0.1898   0.1925   0.2451   0.3153   0.5126   0.6012
     0.6594   0.6883   0.8140   0.9922

          k = 0.0694 0.0972 0.0000 ( 48277 PWs)   bands (ev):

   -16.7966 -10.4100  -9.5766  -9.2445  -9.0507  -8.4176  -8.2289  -7.9014
    -7.5951  -7.2677  -7.0898  -6.9075  -6.7787  -6.2769  -6.1310  -6.1057
    -5.9520  -5.7696  -5.4685  -4.9856  -4.8352  -4.8300  -4.5370  -4.2115
    -4.1926  -4.1028  -3.8839  -3.7344  -3.5611  -3.4331  -3.4158  -3.3613
    -3.2756  -3.0773  -2.9463  -2.8246  -2.5828  -2.4075  -2.3781  -2.2173
    -2.1605  -1.8880  -1.7627  -1.6743  -1.4770  -1.3332  -1.1486  -1.1008
    -1.0383  -0.9351  -0.7954  -0.7138  -0.6532  -0.5607  -0.5246  -0.4217
    -0.4050  -0.2120   0.0466   0.2450   0.2760   0.4038   0.6519   0.7272
     0.7786   0.8674   0.9575   1.1063

          k = 0.0694 0.1250 0.0000 ( 48305 PWs)   bands (ev):

   -16.7965 -10.2986  -9.7983  -9.1340  -8.9411  -8.6376  -8.4472  -7.7925
    -7.4861  -7.3039  -6.9965  -6.8334  -6.8033  -6.3196  -6.1622  -5.7048
    -5.6954  -5.6562  -5.5355  -5.3509  -5.1915  -4.4340  -4.2406  -4.1316
    -4.0972  -4.0930  -4.0777  -4.0028  -3.6322  -3.6208  -3.5562  -3.4670
    -3.0429  -2.9723  -2.9061  -2.8328  -2.7750  -2.6167  -2.4520  -2.3608
    -2.2794  -1.9988  -1.7953  -1.6629  -1.6077  -1.4433  -1.2624  -1.1470
    -0.9496  -0.8920  -0.7553  -0.6853  -0.6123  -0.5228  -0.4808  -0.4157
    -0.2405  -0.0956   0.1676   0.2922   0.3818   0.5030   0.6019   0.6934
     0.7929   0.8365   1.0000   1.0990

          k = 0.0694 0.1528 0.0000 ( 48303 PWs)   bands (ev):

   -16.7965 -10.1595  -9.9927  -8.9959  -8.8305  -8.8047  -8.6379  -7.6566
    -7.4935  -7.3497  -7.1862  -6.6820  -6.4930  -6.3714  -6.0310  -5.8920
    -5.8644  -5.5447  -5.3717  -5.2456  -5.0582  -4.7694  -4.5829  -3.9877
    -3.9740  -3.9418  -3.9124  -3.8121  -3.7994  -3.6886  -3.6788  -3.4881
    -3.2441  -3.0685  -2.8944  -2.7730  -2.6928  -2.6232  -2.5347  -2.4783
    -2.1349  -2.1232  -1.8750  -1.8174  -1.6309  -1.4326  -1.3944  -1.2087
    -1.0802  -0.8556  -0.7611  -0.6673  -0.5093  -0.4634  -0.3583  -0.2981
    -0.0741   0.0210   0.1284   0.1634   0.3848   0.4836   0.5215   0.6158
     0.9508   0.9876   1.1047   1.2869

          k = 0.0972 0.0972 0.0000 ( 48275 PWs)   bands (ev):

   -16.7965 -10.3265  -9.4960  -9.4909  -8.9685  -8.6651  -8.1546  -8.1391
    -7.3313  -7.1920  -7.1796  -6.8303  -6.3847  -6.3612  -6.0752  -5.9808
    -5.8631  -5.8625  -5.2201  -5.0713  -5.0712  -4.7629  -4.7384  -4.1506
    -4.0466  -3.9749  -3.9540  -3.8149  -3.8008  -3.4900  -3.4798  -3.3398
    -3.2180  -3.0694  -3.0593  -2.9086  -2.7932  -2.6661  -2.5703  -2.3389
    -2.1368  -1.8838  -1.8189  -1.6617  -1.4425  -1.3007  -1.0876  -0.9829
    -0.9512  -0.8933  -0.8403  -0.7402  -0.6811  -0.4778  -0.4252  -0.3364
    -0.3333  -0.1635   0.0676   0.1277   0.1512   0.4792   0.8915   0.9024
     0.9225   0.9442   1.0156   1.1126

          k = 0.0972 0.1250 0.0000 ( 48248 PWs)   bands (ev):

   -16.7965 -10.2151  -9.7151  -9.3827  -8.8856  -8.8588  -8.3654  -8.0375
    -7.5477  -7.0773  -6.7526  -6.7243  -6.5888  -6.2423  -5.9421  -5.9091
    -5.7611  -5.4670  -5.4180  -5.2888  -5.2627  -4.6773  -4.6350  -4.4741
    -4.1740  -4.0059  -3.9398  -3.7492  -3.7040  -3.4949  -3.4023  -3.3800
    -3.2705  -3.2225  -3.1629  -2.9284  -2.7710  -2.6854  -2.5664  -2.4830
    -2.2247  -1.9286  -1.8466  -1.6902  -1.5438  -1.2940  -1.2284  -1.1422
    -1.0246  -0.8659  -0.8334  -0.6834  -0.6332  -0.4872  -0.2725  -0.2666
    -0.0649  -0.0459   0.0674   0.2618   0.3430   0.4651   0.6210   0.7626
     0.9235   1.0251   1.1863   1.2315

          k = 0.0972 0.1528 0.0000 ( 48260 PWs)   bands (ev):

   -16.7965 -10.0761  -9.9094  -9.2444  -9.0786  -8.7226  -8.5560  -7.9015
    -7.7376  -6.9416  -6.7787  -6.6013  -6.4158  -6.2904  -5.8089  -5.7852
    -5.6456  -5.5906  -5.4859  -5.4636  -5.0064  -4.9793  -4.5181  -4.5015
    -4.3556  -4.1904  -3.8344  -3.7276  -3.6504  -3.5683  -3.4342  -3.3180
    -3.2569  -3.0923  -3.0636  -2.9877  -2.9276  -2.9066  -2.5750  -2.3344
    -2.1529  -2.0140  -1.8476  -1.7639  -1.5467  -1.5168  -1.3712  -1.2203
    -1.1137  -0.9004  -0.6726  -0.6159  -0.5422  -0.2929  -0.2648  -0.1636
    -0.1044  -0.0726  -0.0223   0.2705   0.3515   0.6433   0.7454   0.9039
     1.0482   1.1007   1.1436   1.1972

          k = 0.1250 0.1250 0.0000 ( 48243 PWs)   bands (ev):

   -16.7965 -10.1039  -9.6066  -9.6018  -9.1062  -8.7493  -8.2646  -8.2473
    -7.7649  -6.6520  -6.6355  -6.6186  -6.1841  -6.1695  -6.1444  -6.0715
    -5.6397  -5.3642  -5.3354  -5.1697  -5.1578  -4.8843  -4.8674  -4.6861
    -4.6818  -3.9124  -3.8935  -3.8395  -3.4695  -3.4487  -3.3992  -3.3812
    -3.3192  -3.2844  -3.2834  -2.9596  -2.8695  -2.8585  -2.4377  -2.2346
    -2.1883  -2.0522  -1.8113  -1.6816  -1.5909  -1.3920  -1.3853  -1.1851
    -1.1280  -1.0549  -0.9172  -0.8395  -0.4201  -0.3504  -0.2630  -0.1359
     0.0253   0.2009   0.2748   0.3675   0.3908   0.4401   0.5425   0.7908
     1.0305   1.0395   1.1615   1.2605

          k = 0.1250 0.1528 0.0000 ( 48229 PWs)   bands (ev):

   -16.7965  -9.9649  -9.7983  -9.4657  -9.2997  -8.6130  -8.4469  -8.1196
    -7.9551  -6.5092  -6.4938  -6.3463  -6.3174  -6.1824  -5.9965  -5.8106
    -5.7017  -5.6960  -5.2278  -5.2098  -5.0591  -5.0303  -4.8745  -4.8679
    -4.4095  -4.3890  -3.9353  -3.7715  -3.7279  -3.6046  -3.5517  -3.2545
    -3.2099  -3.1016  -3.0300  -2.9568  -2.8858  -2.6220  -2.5043  -2.4726
    -2.1468  -1.9452  -1.9073  -1.6938  -1.6350  -1.5500  -1.3529  -1.2490
    -1.2108  -1.0383  -0.9379  -0.8349  -0.6331  -0.3727  -0.2796  -0.0161
     0.1256   0.4056   0.4318   0.4670   0.4863   0.5241   0.7353   0.7414
     0.8373   0.9973   1.0648   1.1271

          k = 0.1528 0.1528 0.0000 ( 48245 PWs)   bands (ev):

   -16.7965  -9.8261  -9.6619  -9.6574  -9.4933  -8.4766  -8.3197  -8.3017
    -8.1451  -6.3661  -6.2386  -6.1497  -6.0589  -6.0400  -5.9699  -5.8976
    -5.8749  -5.5793  -5.5511  -5.4133  -5.3939  -4.7584  -4.7273  -4.5850
    -4.5805  -4.2772  -4.2618  -4.1263  -4.0867  -3.6044  -3.4992  -3.3809
    -3.2381  -2.9010  -2.7403  -2.6413  -2.6316  -2.6183  -2.4765  -2.4542
    -2.2985  -2.1678  -2.0714  -1.7539  -1.6322  -1.4880  -1.3602  -1.2361
    -1.1655  -1.1116  -0.9870  -0.9514  -0.9150  -0.5434   0.0807   0.1724
     0.2597   0.3549   0.3946   0.4336   0.5854   0.5936   0.6779   0.9132
     0.9305   1.0455   1.1023   1.1130

     the Fermi energy is    -0.0953 ev

!    total energy              =   -1463.09428485 Ry
     total all-electron energy =    -17633.081314 Ry
     estimated scf accuracy    <       0.00000004 Ry
     smearing contrib. (-TS)   =       0.00239087 Ry
     internal energy E=F+TS    =   -1463.09667573 Ry

     The total energy is F=E-TS. E is the sum of the following terms:
     one-electron contribution =   -1641.80475909 Ry
     hartree contribution      =     849.56579647 Ry
     xc contribution           =     -98.56110209 Ry
     ewald contribution        =     685.66189529 Ry
     one-center paw contrib.   =   -1257.95850632 Ry

     convergence has been achieved in   3 iterations

     negative rho (up, down):  5.467E-04 0.000E+00

     Forces acting on atoms (cartesian axes, Ry/au):

     atom    1 type  1   force =     0.00000000    0.00000000   -0.00488916
     atom    2 type  1   force =     0.00000000    0.00039506   -0.00541681
     atom    3 type  1   force =     0.00000000   -0.00039506   -0.00541681
     atom    4 type  1   force =     0.00039506    0.00000000   -0.00541681
     atom    5 type  1   force =    -0.00019541   -0.00019541   -0.00412745
     atom    6 type  1   force =    -0.00019541    0.00019541   -0.00412745
     atom    7 type  1   force =    -0.00039506    0.00000000   -0.00541681
     atom    8 type  1   force =     0.00019541   -0.00019541   -0.00412745
     atom    9 type  1   force =     0.00019541    0.00019541   -0.00412745
     atom   10 type  1   force =    -0.00156169   -0.00156169    0.00409421
     atom   11 type  1   force =    -0.00038037    0.00000000    0.00464992
     atom   12 type  1   force =    -0.00156169    0.00156169    0.00409421
     atom   13 type  1   force =     0.00000000   -0.00038037    0.00464992
     atom   14 type  1   force =     0.00000000    0.00000000    0.00633541
     atom   15 type  1   force =     0.00000000    0.00038037    0.00464992
     atom   16 type  1   force =     0.00156169   -0.00156169    0.00409421
     atom   17 type  1   force =     0.00038037    0.00000000    0.00464992
     atom   18 type  1   force =     0.00156169    0.00156169    0.00409421
     atom   19 type  1   force =     0.00000000    0.00000000    0.00017382
     atom   20 type  1   force =     0.00000000   -0.00002633   -0.00020082
     atom   21 type  1   force =     0.00000000    0.00002633   -0.00020082
     atom   22 type  1   force =    -0.00002633    0.00000000   -0.00020082
     atom   23 type  1   force =    -0.00001175   -0.00001175   -0.00022222
     atom   24 type  1   force =    -0.00001175    0.00001175   -0.00022222
     atom   25 type  1   force =     0.00002633    0.00000000   -0.00020082
     atom   26 type  1   force =     0.00001175   -0.00001175   -0.00022222
     atom   27 type  1   force =     0.00001175    0.00001175   -0.00022222
     atom   28 type  1   force =     0.00007219    0.00007219    0.00038219
     atom   29 type  1   force =    -0.00001855    0.00000000    0.00033949
     atom   30 type  1   force =     0.00007219   -0.00007219    0.00038219
     atom   31 type  1   force =     0.00000000   -0.00001855    0.00033949
     atom   32 type  1   force =     0.00000000    0.00000000    0.00044852
     atom   33 type  1   force =     0.00000000    0.00001855    0.00033949
     atom   34 type  1   force =    -0.00007219    0.00007219    0.00038219
     atom   35 type  1   force =     0.00001855    0.00000000    0.00033949
     atom   36 type  1   force =    -0.00007219   -0.00007219    0.00038219
     atom   37 type  2   force =     0.00000000    0.00000000   -0.00006260

     Total force =     0.001299     Total SCF correction =     0.000219
     SCF correction compared to forces is large: reduce conv_thr to get better values

     BFGS Geometry Optimization
     Energy error            =      0.0E+00 Ry
     Gradient error          =      4.5E-04 Ry/Bohr

     bfgs converged in   1 scf cycles and   0 bfgs steps
     (criteria: energy <  1.0E-04 Ry, force <  1.0E-03 Ry/Bohr)

     End of BFGS Geometry Optimization

     Final energy             =   -1463.0942848527 Ry
Begin final coordinates

ATOMIC_POSITIONS (alat)
Al               0.0000000000        0.0000000000        0.0000000000    0   0   0
Al               0.0000000000        0.9999999970        0.0000000000    0   0   0
Al               0.0000000000        1.9999999944        0.0000000000    0   0   0
Al               0.9999999970        0.0000000000        0.0000000000    0   0   0
Al               0.9999999970        0.9999999970        0.0000000000    0   0   0
Al               0.9999999970        1.9999999944        0.0000000000    0   0   0
Al               1.9999999944        0.0000000000        0.0000000000    0   0   0
Al               1.9999999944        0.9999999970        0.0000000000    0   0   0
Al               1.9999999944        1.9999999944        0.0000000000    0   0   0
Al               0.4999999986        0.4999999986        0.7071067670    0   0   0
Al               0.4999999986        1.4999999958        0.7071067670    0   0   0
Al               0.4999999986        2.4999999929        0.7071067670    0   0   0
Al               1.4999999958        0.4999999986        0.7071067670    0   0   0
Al               1.4999999958        1.4999999958        0.7071067670    0   0   0
Al               1.4999999958        2.4999999929        0.7071067670    0   0   0
Al               2.4999999929        0.4999999986        0.7071067670    0   0   0
Al               2.4999999929        1.4999999958        0.7071067670    0   0   0
Al               2.4999999929        2.4999999929        0.7071067670    0   0   0
Al               0.0000000000        0.0000000000        1.4291457179
Al               0.0000000000        1.0007151822        1.4309395020
Al               0.0000000000        1.9992848093        1.4309395020
Al               1.0007151822        0.0000000000        1.4309395020
Al               0.9916775500        0.9916775500        1.4249834437
Al               0.9916775500        2.0083224414        1.4249834437
Al               1.9992848093        0.0000000000        1.4309395020
Al               2.0083224414        0.9916775500        1.4249834437
Al               2.0083224414        2.0083224414        1.4249834437
Al               0.5012291195        0.5012291195        2.1565914875
Al               0.4971216339        1.4999999958        2.1725092986
Al               0.5012291195        2.4987708720        2.1565914875
Al               1.4999999958        0.4971216339        2.1725092986
Al               1.4999999958        1.4999999958        2.0556244476
Al               1.4999999958        2.5028783576        2.1725092986
Al               2.4987708720        0.5012291195        2.1565914875
Al               2.5028783576        1.4999999958        2.1725092986
Al               2.4987708720        2.4987708720        2.1565914875
O                1.4999999993        1.4999999993        2.6435558304    0   0   1
End final coordinates



     Writing all to output data dir ./tmp/Al.save/ :
     XML data file, charge density, pseudopotentials, collected wavefunctions

     init_run     :     21.03s CPU     22.71s WALL (       1 calls)
     electrons    :    280.07s CPU    287.94s WALL (       1 calls)
     forces       :     10.04s CPU     10.76s WALL (       1 calls)

     Called by init_run:
     wfcinit      :     17.70s CPU     18.79s WALL (       1 calls)
     potinit      :      1.63s CPU      1.92s WALL (       1 calls)
     hinit0       :      0.59s CPU      0.67s WALL (       1 calls)

     Called by electrons:
     c_bands      :    247.18s CPU    252.59s WALL (       4 calls)
     sum_band     :     22.65s CPU     23.98s WALL (       4 calls)
     v_of_rho     :      4.11s CPU      4.64s WALL (       4 calls)
     newd         :      2.04s CPU      2.59s WALL (       4 calls)
     PAW_pot      :      1.62s CPU      1.62s WALL (       4 calls)
     mix_rho      :      3.88s CPU      4.13s WALL (       4 calls)

     Called by c_bands:
     init_us_2    :      5.71s CPU      5.90s WALL (      30 calls)
     cegterg      :    221.18s CPU    226.38s WALL (      13 calls)

     Called by *egterg:
     cdiaghg      :      1.09s CPU      1.09s WALL (     196 calls)
     h_psi        :    175.76s CPU    180.88s WALL (     203 calls)
     s_psi        :     30.15s CPU     30.23s WALL (     203 calls)
     g_psi        :      0.51s CPU      0.51s WALL (     187 calls)

     Called by h_psi:
     h_psi:calbec :     26.11s CPU     26.76s WALL (     203 calls)
     vloc_psi     :    118.58s CPU    122.63s WALL (     203 calls)
     add_vuspsi   :     30.35s CPU     30.40s WALL (     203 calls)

     General routines
     calbec       :     32.72s CPU     33.39s WALL (     227 calls)
     fft          :      2.99s CPU      3.42s WALL (      62 calls)
     ffts         :      1.82s CPU      2.00s WALL (     254 calls)
     fftw         :     85.50s CPU     89.14s WALL (   11910 calls)
     interpolate  :      0.29s CPU      0.32s WALL (       4 calls)

     Parallel routines

     PWSCF        :   5m11.56s CPU   5m24.00s WALL


   This run was terminated on:  15:44:55  19May2025            

=------------------------------------------------------------------------------=
   JOB DONE.
=------------------------------------------------------------------------------=
