No protocol specified

     Program PWSCF v.7.3.1 starts on 19May2025 at 16:50:14 

     This program is part of the open-source Quantum ESPRESSO suite
     for quantum simulation of materials; please cite
         "P. Giannozzi et al., J. Phys.:Condens. Matter 21 395502 (2009);
         "P. Giannozzi et al., J. Phys.:Condens. Matter 29 465901 (2017);
         "P. Giannozzi et al., J. Chem. Phys. 152 154105 (2020);
          URL http://www.quantum-espresso.org", 
     in publications or presentations arising from this work. More details at
     http://www.quantum-espresso.org/quote

     Parallel version (MPI), running on     4 processors

     MPI processes distributed on     1 nodes
     24556 MiB available memory on the printing compute node when the environment starts

     Waiting for input...
     Reading input from standard input

     Current dimensions of program PWSCF are:
     Max number of different atomic species (ntypx) = 10
     Max number of k-points (npk) =  40000
     Max angular momentum in pseudopotentials (lmaxx) =  4
     Message from routine input:
     WARNING: "startingwfc" set to atomic may spoil restart
     file Al.pbe-n-kjpaw_psl.1.0.0.UPF: wavefunction(s)  3S 3P renormalized
     file O.pbe-n-kjpaw_psl.0.1.UPF: wavefunction(s)  2P renormalized

     gamma-point specific algorithms are used
     Message from routine setup:
     using ibrav=0 with symmetry is DISCOURAGED, use correct ibrav instead

     R & G space division:  proc/nbgrp/npool/nimage =       4
     Subspace diagonalization in iterative solution of the eigenvalue problem:
     a serial algorithm will be used


     Parallelization info
     --------------------
     sticks:   dense  smooth     PW     G-vecs:    dense   smooth      PW
     Min        1665     833    210               273034    96585   12082
     Max        1668     836    215               273044    96592   12085
     Sum        6665    3341    845              1092149   386353   48331

     Using Slab Decomposition



     bravais-lattice index     =            0
     lattice parameter (alat)  =       5.3944  a.u.
     unit-cell volume          =   11302.2493 (a.u.)^3
     number of atoms/cell      =           37
     number of atomic types    =            2
     number of electrons       =       114.00
     number of Kohn-Sham states=           68
     kinetic-energy cutoff     =      40.0000  Ry
     charge density cutoff     =     320.0000  Ry
     scf convergence threshold =      1.0E-07
     mixing beta               =       0.5000
     number of iterations used =            8  local-TF  mixing
     energy convergence thresh.=      1.0E-04
     force convergence thresh. =      1.0E-03
     Exchange-correlation= SLA  PW   PBX  PBC
                           (   1   4   3   4   0   0   0)
     nstep                     =           50


     celldm(1)=   5.394412  celldm(2)=   0.000000  celldm(3)=   0.000000
     celldm(4)=   0.000000  celldm(5)=   0.000000  celldm(6)=   0.000000

     crystal axes: (cart. coord. in units of alat)
               a(1) = (   3.000000   0.000000   0.000000 )  
               a(2) = (   0.000000   3.000000   0.000000 )  
               a(3) = (   0.000000   0.000000   8.000000 )  

     reciprocal axes: (cart. coord. in units 2 pi/alat)
               b(1) = (  0.333333  0.000000  0.000000 )  
               b(2) = (  0.000000  0.333333  0.000000 )  
               b(3) = (  0.000000  0.000000  0.125000 )  


     PseudoPot. # 1 for Al read from file:
     ../../Pseudo/Al.pbe-n-kjpaw_psl.1.0.0.UPF
     MD5 check sum: dd5adf945272da8132fc805c9e56c2d6
     Pseudo is Projector augmented-wave + core cor, Zval =  3.0
     Generated using "atomic" code by A. Dal Corso  v.5.1
     Shape of augmentation charge: PSQ
     Using radial grid of 1135 points,  6 beta functions with: 
                l(1) =   0
                l(2) =   0
                l(3) =   1
                l(4) =   1
                l(5) =   2
                l(6) =   2
     Q(r) pseudized with 0 coefficients 


     PseudoPot. # 2 for O  read from file:
     ../../Pseudo/O.pbe-n-kjpaw_psl.0.1.UPF
     MD5 check sum: 0234752ac141de4415c5fc33072bef88
     Pseudo is Projector augmented-wave + core cor, Zval =  6.0
     Generated using "atomic" code by A. Dal Corso  v.5.0.99 svn rev. 10869
     Shape of augmentation charge: BESSEL
     Using radial grid of 1095 points,  4 beta functions with: 
                l(1) =   0
                l(2) =   0
                l(3) =   1
                l(4) =   1
     Q(r) pseudized with 0 coefficients 


     atomic species   valence    mass     pseudopotential
     Al                3.00     1.00000     Al( 1.00)
     O                 6.00     1.00000     O ( 1.00)

      8 Sym. Ops. (no inversion) found



   Cartesian axes

     site n.     atom                  positions (alat units)
         1        Al     tau(   1) = (   0.0000000   0.0000000   0.0000000  )
         2        Al     tau(   2) = (   0.0000000   1.0000000   0.0000000  )
         3        Al     tau(   3) = (   0.0000000   2.0000000   0.0000000  )
         4        Al     tau(   4) = (   1.0000000   0.0000000   0.0000000  )
         5        Al     tau(   5) = (   1.0000000   1.0000000   0.0000000  )
         6        Al     tau(   6) = (   1.0000000   2.0000000   0.0000000  )
         7        Al     tau(   7) = (   2.0000000   0.0000000   0.0000000  )
         8        Al     tau(   8) = (   2.0000000   1.0000000   0.0000000  )
         9        Al     tau(   9) = (   2.0000000   2.0000000   0.0000000  )
        10        Al     tau(  10) = (   0.5000000   0.5000000   0.7071068  )
        11        Al     tau(  11) = (   0.5000000   1.5000000   0.7071068  )
        12        Al     tau(  12) = (   0.5000000   2.5000000   0.7071068  )
        13        Al     tau(  13) = (   1.5000000   0.5000000   0.7071068  )
        14        Al     tau(  14) = (   1.5000000   1.5000000   0.7071068  )
        15        Al     tau(  15) = (   1.5000000   2.5000000   0.7071068  )
        16        Al     tau(  16) = (   2.5000000   0.5000000   0.7071068  )
        17        Al     tau(  17) = (   2.5000000   1.5000000   0.7071068  )
        18        Al     tau(  18) = (   2.5000000   2.5000000   0.7071068  )
        19        Al     tau(  19) = (   0.0000000   0.0000000   1.4291457  )
        20        Al     tau(  20) = (   0.0000000   1.0007152   1.4309395  )
        21        Al     tau(  21) = (   0.0000000   1.9992848   1.4309395  )
        22        Al     tau(  22) = (   1.0007152   0.0000000   1.4309395  )
        23        Al     tau(  23) = (   0.9916776   0.9916776   1.4249834  )
        24        Al     tau(  24) = (   0.9916776   2.0083224   1.4249834  )
        25        Al     tau(  25) = (   1.9992848   0.0000000   1.4309395  )
        26        Al     tau(  26) = (   2.0083224   0.9916776   1.4249834  )
        27        Al     tau(  27) = (   2.0083224   2.0083224   1.4249834  )
        28        Al     tau(  28) = (   0.5012291   0.5012291   2.1565915  )
        29        Al     tau(  29) = (   0.4971216   1.5000000   2.1725093  )
        30        Al     tau(  30) = (   0.5012291   2.4987709   2.1565915  )
        31        Al     tau(  31) = (   1.5000000   0.4971216   2.1725093  )
        32        Al     tau(  32) = (   1.5000000   1.5000000   2.0556244  )
        33        Al     tau(  33) = (   1.5000000   2.5028784   2.1725093  )
        34        Al     tau(  34) = (   2.4987709   0.5012291   2.1565915  )
        35        Al     tau(  35) = (   2.5028784   1.5000000   2.1725093  )
        36        Al     tau(  36) = (   2.4987709   2.4987709   2.1565915  )
        37        O      tau(  37) = (   1.5000000   1.5000000   2.6435558  )

     number of k points=     1  Marzari-Vanderbilt smearing, width (Ry)=  0.0500
                       cart. coord. in units 2pi/alat
        k(    1) = (   0.0000000   0.0000000   0.0000000), wk =   2.0000000

     Dense  grid:   546075 G-vectors     FFT dimensions: (  96,  96, 250)

     Smooth grid:   193177 G-vectors     FFT dimensions: (  72,  72, 180)

     Estimated max dynamical RAM per process >     779.13 MB

     Estimated total dynamical RAM >       3.04 GB

     Atomic positions and unit cell read from directory:
     ./tmp/Al.save/

     Message from routine read_rhog:
     Conversion: K charge Gamma charge

     The initial density is read from file :
     ./tmp/Al.save/charge-density


     negative rho (up, down):  5.467E-04 0.000E+00
     Starting wfcs are  148 atomic wfcs
     Checking if some PAW data can be deallocated... 

     total cpu time spent up to now is        3.8 secs

     Self-consistent Calculation

     iteration #  1     ecut=    40.00 Ry     beta= 0.50
     Davidson diagonalization with overlap
     ethr =  1.00E-05,  avg # of iterations = 20.0

     negative rho (up, down):  4.811E-05 0.000E+00

     total cpu time spent up to now is       12.7 secs

     total energy              =   -1462.48762869 Ry
     estimated scf accuracy    <       0.16359943 Ry

     iteration #  2     ecut=    40.00 Ry     beta= 0.50
     Davidson diagonalization with overlap
     ethr =  1.44E-04,  avg # of iterations =  1.0

     negative rho (up, down):  1.352E-06 0.000E+00

     total cpu time spent up to now is       17.9 secs

     total energy              =   -1462.47958916 Ry
     estimated scf accuracy    <       0.05108836 Ry

     iteration #  3     ecut=    40.00 Ry     beta= 0.50
     Davidson diagonalization with overlap
     ethr =  4.48E-05,  avg # of iterations =  2.0

     negative rho (up, down):  6.403E-07 0.000E+00

     total cpu time spent up to now is       23.2 secs

     total energy              =   -1462.48434371 Ry
     estimated scf accuracy    <       0.00161635 Ry

     iteration #  4     ecut=    40.00 Ry     beta= 0.50
     Davidson diagonalization with overlap
     ethr =  1.42E-06,  avg # of iterations = 12.0

     negative rho (up, down):  7.140E-07 0.000E+00

     total cpu time spent up to now is       29.7 secs

     total energy              =   -1462.48559348 Ry
     estimated scf accuracy    <       0.00454908 Ry

     iteration #  5     ecut=    40.00 Ry     beta= 0.50
     Davidson diagonalization with overlap
     ethr =  1.42E-06,  avg # of iterations =  1.0

     negative rho (up, down):  3.841E-06 0.000E+00

     total cpu time spent up to now is       34.9 secs

     total energy              =   -1462.48499077 Ry
     estimated scf accuracy    <       0.00209468 Ry

     iteration #  6     ecut=    40.00 Ry     beta= 0.50
     Davidson diagonalization with overlap
     ethr =  1.42E-06,  avg # of iterations =  4.0

     negative rho (up, down):  2.434E-06 0.000E+00

     total cpu time spent up to now is       40.5 secs

     total energy              =   -1462.48558045 Ry
     estimated scf accuracy    <       0.00241572 Ry

     iteration #  7     ecut=    40.00 Ry     beta= 0.50
     Davidson diagonalization with overlap
     ethr =  1.42E-06,  avg # of iterations =  1.0

     negative rho (up, down):  2.447E-06 0.000E+00

     total cpu time spent up to now is       45.7 secs

     total energy              =   -1462.48561206 Ry
     estimated scf accuracy    <       0.00169551 Ry

     iteration #  8     ecut=    40.00 Ry     beta= 0.50
     Davidson diagonalization with overlap
     ethr =  1.42E-06,  avg # of iterations =  1.0

     negative rho (up, down):  1.392E-05 0.000E+00

     total cpu time spent up to now is       50.9 secs

     total energy              =   -1462.48543866 Ry
     estimated scf accuracy    <       0.00180435 Ry

     iteration #  9     ecut=    40.00 Ry     beta= 0.50
     Davidson diagonalization with overlap
     ethr =  1.42E-06,  avg # of iterations =  2.0

     negative rho (up, down):  3.460E-05 0.000E+00

     total cpu time spent up to now is       56.1 secs

     total energy              =   -1462.48545360 Ry
     estimated scf accuracy    <       0.00039955 Ry

     iteration # 10     ecut=    40.00 Ry     beta= 0.50
     Davidson diagonalization with overlap
     ethr =  3.50E-07,  avg # of iterations =  2.0

     negative rho (up, down):  1.066E-04 0.000E+00

     total cpu time spent up to now is       61.4 secs

     total energy              =   -1462.48547833 Ry
     estimated scf accuracy    <       0.00008292 Ry

     iteration # 11     ecut=    40.00 Ry     beta= 0.50
     Davidson diagonalization with overlap
     ethr =  7.27E-08,  avg # of iterations = 11.0

     negative rho (up, down):  1.793E-04 0.000E+00

     total cpu time spent up to now is       67.4 secs

     total energy              =   -1462.48551005 Ry
     estimated scf accuracy    <       0.00004594 Ry

     iteration # 12     ecut=    40.00 Ry     beta= 0.50
     Davidson diagonalization with overlap
     ethr =  4.03E-08,  avg # of iterations =  2.0

     negative rho (up, down):  2.478E-04 0.000E+00

     total cpu time spent up to now is       72.7 secs

     total energy              =   -1462.48550637 Ry
     estimated scf accuracy    <       0.00003609 Ry

     iteration # 13     ecut=    40.00 Ry     beta= 0.50
     Davidson diagonalization with overlap
     ethr =  3.17E-08,  avg # of iterations =  2.0

     negative rho (up, down):  4.029E-04 0.000E+00

     total cpu time spent up to now is       77.9 secs

     total energy              =   -1462.48551249 Ry
     estimated scf accuracy    <       0.00000146 Ry

     iteration # 14     ecut=    40.00 Ry     beta= 0.50
     Davidson diagonalization with overlap
     ethr =  1.28E-09,  avg # of iterations = 13.0

     negative rho (up, down):  4.497E-04 0.000E+00

     total cpu time spent up to now is       84.5 secs

     total energy              =   -1462.48551143 Ry
     estimated scf accuracy    <       0.00002353 Ry

     iteration # 15     ecut=    40.00 Ry     beta= 0.50
     Davidson diagonalization with overlap
     ethr =  1.28E-09,  avg # of iterations =  6.0

     negative rho (up, down):  5.055E-04 0.000E+00

     total cpu time spent up to now is       90.4 secs

     total energy              =   -1462.48551347 Ry
     estimated scf accuracy    <       0.00000020 Ry

     iteration # 16     ecut=    40.00 Ry     beta= 0.50
     Davidson diagonalization with overlap
     ethr =  1.74E-10,  avg # of iterations =  6.0

     negative rho (up, down):  5.402E-04 0.000E+00

     total cpu time spent up to now is       96.3 secs

     total energy              =   -1462.48551345 Ry
     estimated scf accuracy    <       0.00000157 Ry

     iteration # 17     ecut=    40.00 Ry     beta= 0.50
     Davidson diagonalization with overlap
     ethr =  1.74E-10,  avg # of iterations =  4.0

     negative rho (up, down):  5.450E-04 0.000E+00

     total cpu time spent up to now is      101.8 secs

     total energy              =   -1462.48551350 Ry
     estimated scf accuracy    <       0.00000014 Ry

     iteration # 18     ecut=    40.00 Ry     beta= 0.50
     Davidson diagonalization with overlap
     ethr =  1.25E-10,  avg # of iterations =  4.0

     negative rho (up, down):  5.544E-04 0.000E+00

     total cpu time spent up to now is      106.4 secs

     End of self-consistent calculation

          k = 0.0000 0.0000 0.0000 ( 24166 PWs)   bands (ev):

   -16.9823 -10.5043  -9.1978  -8.5189  -8.5188  -8.5029  -8.4934  -7.2418
    -7.2417  -7.2341  -7.2305  -7.0967  -6.5661  -6.5362  -6.5321  -6.5319
    -5.3015  -5.3012  -5.3010  -5.2861  -5.2356  -5.2316  -5.2315  -5.0757
    -4.2811  -3.3810  -3.3806  -3.3634  -3.2983  -2.7414  -2.7413  -2.7225
    -2.6902  -2.6508  -2.5470  -2.5468  -2.4479  -2.0673  -1.9122  -1.9119
    -1.7418  -1.4320  -1.4024  -1.4022  -1.3970  -1.3605  -1.3498  -1.3493
    -1.2790  -0.5563  -0.4293  -0.4293  -0.3790  -0.2223  -0.2221  -0.2213
    -0.2116  -0.1792  -0.0034   0.0456   0.0456   0.0478   0.0990   0.0991
     0.3715   0.5675   0.7100   0.7619

     the Fermi energy is    -0.0879 ev

!    total energy              =   -1462.48551352 Ry
     total all-electron energy =    -17632.472543 Ry
     estimated scf accuracy    <          2.3E-09 Ry
     smearing contrib. (-TS)   =      -0.11554879 Ry
     internal energy E=F+TS    =   -1462.36996474 Ry

     The total energy is F=E-TS. E is the sum of the following terms:
     one-electron contribution =   -1641.85987225 Ry
     hartree contribution      =     850.29053777 Ry
     xc contribution           =     -98.55185901 Ry
     ewald contribution        =     685.66189529 Ry
     one-center paw contrib.   =   -1257.91066653 Ry

     convergence has been achieved in  18 iterations

     negative rho (up, down):  5.544E-04 0.000E+00

     Forces acting on atoms (cartesian axes, Ry/au):

     atom    1 type  1   force =     0.00000000    0.00000000    0.01907289
     atom    2 type  1   force =    -0.00000000    0.00070038    0.01553544
     atom    3 type  1   force =     0.00000000   -0.00070038    0.01553544
     atom    4 type  1   force =     0.00070038    0.00000000    0.01553544
     atom    5 type  1   force =    -0.00044400   -0.00044400    0.01610861
     atom    6 type  1   force =    -0.00044400    0.00044400    0.01610861
     atom    7 type  1   force =    -0.00070038    0.00000000    0.01553544
     atom    8 type  1   force =     0.00044400   -0.00044400    0.01610861
     atom    9 type  1   force =     0.00044400    0.00044400    0.01610861
     atom   10 type  1   force =     0.00094060    0.00094060   -0.00634961
     atom   11 type  1   force =     0.00017542    0.00000000   -0.00502452
     atom   12 type  1   force =     0.00094060   -0.00094060   -0.00634961
     atom   13 type  1   force =     0.00000000    0.00017542   -0.00502452
     atom   14 type  1   force =     0.00000000    0.00000000   -0.00253551
     atom   15 type  1   force =     0.00000000   -0.00017542   -0.00502452
     atom   16 type  1   force =    -0.00094060    0.00094060   -0.00634961
     atom   17 type  1   force =    -0.00017542    0.00000000   -0.00502452
     atom   18 type  1   force =    -0.00094060   -0.00094060   -0.00634961
     atom   19 type  1   force =     0.00000000    0.00000000    0.01338345
     atom   20 type  1   force =    -0.00000000   -0.00010754    0.00495414
     atom   21 type  1   force =     0.00000000    0.00010754    0.00495414
     atom   22 type  1   force =    -0.00010754   -0.00000000    0.00495414
     atom   23 type  1   force =     0.00053220    0.00053220    0.00786744
     atom   24 type  1   force =     0.00053220   -0.00053220    0.00786744
     atom   25 type  1   force =     0.00010754   -0.00000000    0.00495414
     atom   26 type  1   force =    -0.00053220    0.00053220    0.00786744
     atom   27 type  1   force =    -0.00053220   -0.00053220    0.00786744
     atom   28 type  1   force =    -0.00005378   -0.00005378   -0.01669016
     atom   29 type  1   force =    -0.00087641    0.00000000   -0.01498264
     atom   30 type  1   force =    -0.00005378    0.00005378   -0.01669016
     atom   31 type  1   force =     0.00000000   -0.00087641   -0.01498264
     atom   32 type  1   force =     0.00000000    0.00000000   -0.03080489
     atom   33 type  1   force =     0.00000000    0.00087641   -0.01498264
     atom   34 type  1   force =     0.00005378   -0.00005378   -0.01669016
     atom   35 type  1   force =     0.00087641   -0.00000000   -0.01498264
     atom   36 type  1   force =     0.00005378    0.00005378   -0.01669016
     atom   37 type  2   force =     0.00000000    0.00000000   -0.00479080

     Total force =     0.059282     Total SCF correction =     0.000040

     BFGS Geometry Optimization
     Energy error            =      0.0E+00 Ry
     Gradient error          =      3.1E-02 Ry/Bohr

     number of scf cycles    =   1
     number of bfgs steps    =   0

     energy             new  =   -1462.4855135219 Ry

     new trust radius        =       0.0308048919 bohr
     new conv_thr            =       0.0000001000 Ry


ATOMIC_POSITIONS (alat)
Al               0.0000000000        0.0000000000        0.0000000000    0   0   0
Al               0.0000000000        0.9999999970        0.0000000000    0   0   0
Al               0.0000000000        1.9999999944        0.0000000000    0   0   0
Al               0.9999999970        0.0000000000        0.0000000000    0   0   0
Al               0.9999999970        0.9999999970        0.0000000000    0   0   0
Al               0.9999999970        1.9999999944        0.0000000000    0   0   0
Al               1.9999999944        0.0000000000        0.0000000000    0   0   0
Al               1.9999999944        0.9999999970        0.0000000000    0   0   0
Al               1.9999999944        1.9999999944        0.0000000000    0   0   0
Al               0.4999999986        0.4999999986        0.7071067670    0   0   0
Al               0.4999999986        1.4999999958        0.7071067670    0   0   0
Al               0.4999999986        2.4999999929        0.7071067670    0   0   0
Al               1.4999999958        0.4999999986        0.7071067670    0   0   0
Al               1.4999999958        1.4999999958        0.7071067670    0   0   0
Al               1.4999999958        2.4999999929        0.7071067670    0   0   0
Al               2.4999999929        0.4999999986        0.7071067670    0   0   0
Al               2.4999999929        1.4999999958        0.7071067670    0   0   0
Al               2.4999999929        2.4999999929        0.7071067670    0   0   0
Al               0.0000000000        0.0000000000        1.4316267022
Al              -0.0000000000        1.0006952473        1.4318578858
Al               0.0000000000        1.9993047442        1.4318578858
Al               1.0006952473       -0.0000000000        1.4318578858
Al               0.9917762074        0.9917762074        1.4264418869
Al               0.9917762074        2.0082237840        1.4264418869
Al               1.9993047442       -0.0000000000        1.4318578858
Al               2.0082237840        0.9917762074        1.4264418869
Al               2.0082237840        2.0082237840        1.4264418869
Al               0.5012191504        0.5012191504        2.1534975164
Al               0.4969591685        1.4999999958        2.1697318613
Al               0.5012191504        2.4987808411        2.1534975164
Al               1.4999999958        0.4969591685        2.1697318613
Al               1.4999999958        1.4999999958        2.0499139289
Al               1.4999999958        2.5030408230        2.1697318613
Al               2.4987808411        0.5012191504        2.1534975164
Al               2.5030408230        1.4999999958        2.1697318613
Al               2.4987808411        2.4987808411        2.1534975164
O                1.4999999993        1.4999999993        2.6426677268    0   0   1



     Writing config-only to output data dir ./tmp/Al.save/ :
     XML data file
     NEW-OLD atomic charge density approx. for the potential

     negative rho (up, down):  5.621E-04 0.000E+00

     total cpu time spent up to now is      112.8 secs

     Self-consistent Calculation

     iteration #  1     ecut=    40.00 Ry     beta= 0.50
     Davidson diagonalization with overlap
     ethr =  1.00E-06,  avg # of iterations =  8.0

     negative rho (up, down):  5.796E-04 0.000E+00

     total cpu time spent up to now is      118.8 secs

     total energy              =   -1462.48874888 Ry
     estimated scf accuracy    <       0.00131363 Ry

     iteration #  2     ecut=    40.00 Ry     beta= 0.50
     Davidson diagonalization with overlap
     ethr =  1.15E-06,  avg # of iterations =  1.0

     negative rho (up, down):  5.585E-04 0.000E+00

     total cpu time spent up to now is      124.0 secs

     total energy              =   -1462.48870768 Ry
     estimated scf accuracy    <       0.00044368 Ry

     iteration #  3     ecut=    40.00 Ry     beta= 0.50
     Davidson diagonalization with overlap
     ethr =  3.89E-07,  avg # of iterations =  7.0

     negative rho (up, down):  5.360E-04 0.000E+00

     total cpu time spent up to now is      129.3 secs

     total energy              =   -1462.48876051 Ry
     estimated scf accuracy    <       0.00001570 Ry

     iteration #  4     ecut=    40.00 Ry     beta= 0.50
     Davidson diagonalization with overlap
     ethr =  1.38E-08,  avg # of iterations = 12.0

     negative rho (up, down):  5.418E-04 0.000E+00

     total cpu time spent up to now is      135.4 secs

     total energy              =   -1462.48877058 Ry
     estimated scf accuracy    <       0.00002774 Ry

     iteration #  5     ecut=    40.00 Ry     beta= 0.50
     Davidson diagonalization with overlap
     ethr =  1.38E-08,  avg # of iterations =  2.0

     negative rho (up, down):  4.882E-04 0.000E+00

     total cpu time spent up to now is      140.6 secs

     total energy              =   -1462.48876633 Ry
     estimated scf accuracy    <       0.00004298 Ry

     iteration #  6     ecut=    40.00 Ry     beta= 0.50
     Davidson diagonalization with overlap
     ethr =  1.38E-08,  avg # of iterations =  2.0

     negative rho (up, down):  4.885E-04 0.000E+00

     total cpu time spent up to now is      145.8 secs

     total energy              =   -1462.48876793 Ry
     estimated scf accuracy    <       0.00000467 Ry

     iteration #  7     ecut=    40.00 Ry     beta= 0.50
     Davidson diagonalization with overlap
     ethr =  4.09E-09,  avg # of iterations =  5.0

     negative rho (up, down):  4.916E-04 0.000E+00

     total cpu time spent up to now is      151.3 secs

     total energy              =   -1462.48876801 Ry
     estimated scf accuracy    <       0.00000093 Ry

     iteration #  8     ecut=    40.00 Ry     beta= 0.50
     Davidson diagonalization with overlap
     ethr =  8.18E-10,  avg # of iterations =  9.0

     negative rho (up, down):  4.983E-04 0.000E+00

     total cpu time spent up to now is      157.3 secs

     total energy              =   -1462.48876824 Ry
     estimated scf accuracy    <       0.00000104 Ry

     iteration #  9     ecut=    40.00 Ry     beta= 0.50
     Davidson diagonalization with overlap
     ethr =  8.18E-10,  avg # of iterations =  1.0

     negative rho (up, down):  5.056E-04 0.000E+00

     total cpu time spent up to now is      162.4 secs

     total energy              =   -1462.48876825 Ry
     estimated scf accuracy    <       0.00000027 Ry

     iteration # 10     ecut=    40.00 Ry     beta= 0.50
     Davidson diagonalization with overlap
     ethr =  2.40E-10,  avg # of iterations =  2.0

     negative rho (up, down):  5.140E-04 0.000E+00

     total cpu time spent up to now is      167.6 secs

     total energy              =   -1462.48876826 Ry
     estimated scf accuracy    <       0.00000017 Ry

     iteration # 11     ecut=    40.00 Ry     beta= 0.50
     Davidson diagonalization with overlap
     ethr =  1.45E-10,  avg # of iterations =  2.0

     negative rho (up, down):  5.319E-04 0.000E+00

     total cpu time spent up to now is      172.8 secs

     total energy              =   -1462.48876824 Ry
     estimated scf accuracy    <       0.00000014 Ry

     iteration # 12     ecut=    40.00 Ry     beta= 0.50
     Davidson diagonalization with overlap
     ethr =  1.24E-10,  avg # of iterations =  6.0

     negative rho (up, down):  5.508E-04 0.000E+00

     total cpu time spent up to now is      177.4 secs

     End of self-consistent calculation

          k = 0.0000 0.0000 0.0000 ( 24166 PWs)   bands (ev):

   -16.9326 -10.5093  -9.2091  -8.5236  -8.5235  -8.5088  -8.4985  -7.2521
    -7.2520  -7.2446  -7.2406  -7.0959  -6.5706  -6.5424  -6.5371  -6.5369
    -5.3137  -5.3095  -5.3093  -5.2966  -5.2323  -5.2276  -5.2275  -5.0715
    -4.2764  -3.3698  -3.3695  -3.3558  -3.2938  -2.7418  -2.7417  -2.7238
    -2.6857  -2.6555  -2.5407  -2.5405  -2.4440  -2.0621  -1.8964  -1.8961
    -1.7399  -1.4429  -1.4117  -1.4115  -1.4017  -1.3657  -1.3526  -1.3522
    -1.2822  -0.5522  -0.4280  -0.4280  -0.3782  -0.2295  -0.2293  -0.2274
    -0.2235  -0.1827  -0.0069   0.0425   0.0425   0.0438   0.0992   0.0993
     0.3772   0.5725   0.7135   0.7627

     the Fermi energy is    -0.0904 ev

!    total energy              =   -1462.48876824 Ry
     total all-electron energy =    -17632.475798 Ry
     estimated scf accuracy    <       0.00000001 Ry
     smearing contrib. (-TS)   =      -0.11583186 Ry
     internal energy E=F+TS    =   -1462.37293637 Ry

     The total energy is F=E-TS. E is the sum of the following terms:
     one-electron contribution =   -1643.74513029 Ry
     hartree contribution      =     851.23796793 Ry
     xc contribution           =     -98.56337051 Ry
     ewald contribution        =     686.60947463 Ry
     one-center paw contrib.   =   -1257.91187813 Ry

     convergence has been achieved in  12 iterations

     negative rho (up, down):  5.508E-04 0.000E+00

     Forces acting on atoms (cartesian axes, Ry/au):

     atom    1 type  1   force =     0.00000000    0.00000000    0.01933230
     atom    2 type  1   force =     0.00000000    0.00066723    0.01576583
     atom    3 type  1   force =    -0.00000000   -0.00066723    0.01576583
     atom    4 type  1   force =     0.00066723   -0.00000000    0.01576583
     atom    5 type  1   force =    -0.00050423   -0.00050423    0.01650723
     atom    6 type  1   force =    -0.00050423    0.00050423    0.01650723
     atom    7 type  1   force =    -0.00066723    0.00000000    0.01576583
     atom    8 type  1   force =     0.00050423   -0.00050423    0.01650723
     atom    9 type  1   force =     0.00050423    0.00050423    0.01650723
     atom   10 type  1   force =     0.00082227    0.00082227   -0.00642140
     atom   11 type  1   force =     0.00022968    0.00000000   -0.00518753
     atom   12 type  1   force =     0.00082227   -0.00082227   -0.00642140
     atom   13 type  1   force =    -0.00000000    0.00022968   -0.00518753
     atom   14 type  1   force =     0.00000000    0.00000000   -0.00274382
     atom   15 type  1   force =     0.00000000   -0.00022968   -0.00518753
     atom   16 type  1   force =    -0.00082227    0.00082227   -0.00642140
     atom   17 type  1   force =    -0.00022968   -0.00000000   -0.00518753
     atom   18 type  1   force =    -0.00082227   -0.00082227   -0.00642140
     atom   19 type  1   force =     0.00000000    0.00000000    0.01247885
     atom   20 type  1   force =     0.00000000   -0.00011183    0.00465827
     atom   21 type  1   force =    -0.00000000    0.00011183    0.00465827
     atom   22 type  1   force =    -0.00011183   -0.00000000    0.00465827
     atom   23 type  1   force =     0.00016915    0.00016915    0.00704205
     atom   24 type  1   force =     0.00016915   -0.00016915    0.00704205
     atom   25 type  1   force =     0.00011183    0.00000000    0.00465827
     atom   26 type  1   force =    -0.00016915    0.00016915    0.00704205
     atom   27 type  1   force =    -0.00016915   -0.00016915    0.00704205
     atom   28 type  1   force =    -0.00013832   -0.00013832   -0.01646865
     atom   29 type  1   force =    -0.00036237   -0.00000000   -0.01477454
     atom   30 type  1   force =    -0.00013832    0.00013832   -0.01646865
     atom   31 type  1   force =     0.00000000   -0.00036237   -0.01477454
     atom   32 type  1   force =     0.00000000    0.00000000   -0.01426946
     atom   33 type  1   force =     0.00000000    0.00036237   -0.01477454
     atom   34 type  1   force =     0.00013832   -0.00013832   -0.01646865
     atom   35 type  1   force =     0.00036237    0.00000000   -0.01477454
     atom   36 type  1   force =     0.00013832    0.00013832   -0.01646865
     atom   37 type  2   force =     0.00000000    0.00000000   -0.01928285

     Total force =     0.054546     Total SCF correction =     0.000148
     Energy error            =      3.3E-03 Ry
     Gradient error          =      1.9E-02 Ry/Bohr

     number of scf cycles    =   2
     number of bfgs steps    =   1

     energy             old  =   -1462.4855135219 Ry
     energy             new  =   -1462.4887682359 Ry

     CASE: energy            _new < energy            _old


     WARNING: bfgs curvature condition failed, Theta= 0.937
     new trust radius        =       0.0338853811 bohr
     new conv_thr            =       0.0000000193 Ry


ATOMIC_POSITIONS (alat)
Al               0.0000000000        0.0000000000        0.0000000000    0   0   0
Al               0.0000000000        0.9999999970        0.0000000000    0   0   0
Al               0.0000000000        1.9999999944        0.0000000000    0   0   0
Al               0.9999999970        0.0000000000        0.0000000000    0   0   0
Al               0.9999999970        0.9999999970        0.0000000000    0   0   0
Al               0.9999999970        1.9999999944        0.0000000000    0   0   0
Al               1.9999999944        0.0000000000        0.0000000000    0   0   0
Al               1.9999999944        0.9999999970        0.0000000000    0   0   0
Al               1.9999999944        1.9999999944        0.0000000000    0   0   0
Al               0.4999999986        0.4999999986        0.7071067670    0   0   0
Al               0.4999999986        1.4999999958        0.7071067670    0   0   0
Al               0.4999999986        2.4999999929        0.7071067670    0   0   0
Al               1.4999999958        0.4999999986        0.7071067670    0   0   0
Al               1.4999999958        1.4999999958        0.7071067670    0   0   0
Al               1.4999999958        2.4999999929        0.7071067670    0   0   0
Al               2.4999999929        0.4999999986        0.7071067670    0   0   0
Al               2.4999999929        1.4999999958        0.7071067670    0   0   0
Al               2.4999999929        2.4999999929        0.7071067670    0   0   0
Al               0.0000000000        0.0000000000        1.4354548425
Al              -0.0000000000        1.0006624638        1.4332817686
Al               0.0000000000        1.9993375277        1.4332817686
Al               1.0006624638       -0.0000000000        1.4332817686
Al               0.9918711881        0.9918711881        1.4286408622
Al               0.9918711881        2.0081288033        1.4286408622
Al               1.9993375277       -0.0000000000        1.4332817686
Al               2.0081288033        0.9918711881        1.4286408622
Al               2.0081288033        2.0081288033        1.4286408622
Al               0.5011883344        0.5011883344        2.1485648612
Al               0.4967880877        1.4999999958        2.1653054696
Al               0.5011883344        2.4988116571        2.1485648612
Al               1.4999999958        0.4967880877        2.1653054696
Al               1.4999999958        1.4999999958        2.0436323582
Al               1.4999999958        2.5032119038        2.1653054696
Al               2.4988116571        0.5011883344        2.1485648612
Al               2.5032119038        1.4999999958        2.1653054696
Al               2.4988116571        2.4988116571        2.1485648612
O                1.4999999993        1.4999999993        2.6387042101    0   0   1



     Writing config-only to output data dir ./tmp/Al.save/ :
     XML data file
     NEW-OLD atomic charge density approx. for the potential

     negative rho (up, down):  5.643E-04 0.000E+00

     total cpu time spent up to now is      183.8 secs

     Self-consistent Calculation

     iteration #  1     ecut=    40.00 Ry     beta= 0.50
     Davidson diagonalization with overlap
     ethr =  1.00E-06,  avg # of iterations = 11.0

     negative rho (up, down):  5.246E-04 0.000E+00

     total cpu time spent up to now is      190.4 secs

     total energy              =   -1462.49337274 Ry
     estimated scf accuracy    <       0.00340237 Ry

     iteration #  2     ecut=    40.00 Ry     beta= 0.50
     Davidson diagonalization with overlap
     ethr =  2.98E-06,  avg # of iterations =  1.0

     negative rho (up, down):  4.208E-04 0.000E+00

     total cpu time spent up to now is      195.6 secs

     total energy              =   -1462.49322829 Ry
     estimated scf accuracy    <       0.00109428 Ry

     iteration #  3     ecut=    40.00 Ry     beta= 0.50
     Davidson diagonalization with overlap
     ethr =  9.60E-07,  avg # of iterations =  7.0

     negative rho (up, down):  4.084E-04 0.000E+00

     total cpu time spent up to now is      201.1 secs

     total energy              =   -1462.49336954 Ry
     estimated scf accuracy    <       0.00014493 Ry

     iteration #  4     ecut=    40.00 Ry     beta= 0.50
     Davidson diagonalization with overlap
     ethr =  1.27E-07,  avg # of iterations =  5.0

     negative rho (up, down):  3.903E-04 0.000E+00

     total cpu time spent up to now is      206.6 secs

     total energy              =   -1462.49337607 Ry
     estimated scf accuracy    <       0.00003654 Ry

     iteration #  5     ecut=    40.00 Ry     beta= 0.50
     Davidson diagonalization with overlap
     ethr =  3.21E-08,  avg # of iterations =  8.0

     negative rho (up, down):  3.849E-04 0.000E+00

     total cpu time spent up to now is      212.3 secs

     total energy              =   -1462.49338030 Ry
     estimated scf accuracy    <       0.00005211 Ry

     iteration #  6     ecut=    40.00 Ry     beta= 0.50
     Davidson diagonalization with overlap
     ethr =  3.21E-08,  avg # of iterations =  2.0

     negative rho (up, down):  3.994E-04 0.000E+00

     total cpu time spent up to now is      217.6 secs

     total energy              =   -1462.49338332 Ry
     estimated scf accuracy    <       0.00000376 Ry

     iteration #  7     ecut=    40.00 Ry     beta= 0.50
     Davidson diagonalization with overlap
     ethr =  3.30E-09,  avg # of iterations =  9.0

     negative rho (up, down):  4.215E-04 0.000E+00

     total cpu time spent up to now is      223.6 secs

     total energy              =   -1462.49338475 Ry
     estimated scf accuracy    <       0.00000286 Ry

     iteration #  8     ecut=    40.00 Ry     beta= 0.50
     Davidson diagonalization with overlap
     ethr =  2.51E-09,  avg # of iterations =  1.0

     negative rho (up, down):  4.499E-04 0.000E+00

     total cpu time spent up to now is      228.7 secs

     total energy              =   -1462.49338475 Ry
     estimated scf accuracy    <       0.00000135 Ry

     iteration #  9     ecut=    40.00 Ry     beta= 0.50
     Davidson diagonalization with overlap
     ethr =  1.18E-09,  avg # of iterations =  5.0

     negative rho (up, down):  4.901E-04 0.000E+00

     total cpu time spent up to now is      234.0 secs

     total energy              =   -1462.49338483 Ry
     estimated scf accuracy    <       0.00000015 Ry

     iteration # 10     ecut=    40.00 Ry     beta= 0.50
     Davidson diagonalization with overlap
     ethr =  1.34E-10,  avg # of iterations =  9.0

     negative rho (up, down):  5.082E-04 0.000E+00

     total cpu time spent up to now is      240.1 secs

     total energy              =   -1462.49338490 Ry
     estimated scf accuracy    <       0.00000036 Ry

     iteration # 11     ecut=    40.00 Ry     beta= 0.50
     Davidson diagonalization with overlap
     ethr =  1.34E-10,  avg # of iterations =  1.0

     negative rho (up, down):  5.302E-04 0.000E+00

     total cpu time spent up to now is      245.2 secs

     total energy              =   -1462.49338489 Ry
     estimated scf accuracy    <       0.00000025 Ry

     iteration # 12     ecut=    40.00 Ry     beta= 0.50
     Davidson diagonalization with overlap
     ethr =  1.34E-10,  avg # of iterations =  2.0

     negative rho (up, down):  5.398E-04 0.000E+00

     total cpu time spent up to now is      250.4 secs

     total energy              =   -1462.49338489 Ry
     estimated scf accuracy    <       0.00000005 Ry

     iteration # 13     ecut=    40.00 Ry     beta= 0.50
     Davidson diagonalization with overlap
     ethr =  4.79E-11,  avg # of iterations =  6.0

     negative rho (up, down):  5.490E-04 0.000E+00

     total cpu time spent up to now is      255.0 secs

     End of self-consistent calculation

          k = 0.0000 0.0000 0.0000 ( 24166 PWs)   bands (ev):

   -16.9033 -10.5146  -9.2238  -8.5291  -8.5290  -8.5141  -8.5045  -7.2661
    -7.2661  -7.2586  -7.2531  -7.0904  -6.5760  -6.5489  -6.5427  -6.5425
    -5.3288  -5.3223  -5.3221  -5.3110  -5.2248  -5.2191  -5.2190  -5.0616
    -4.2664  -3.3573  -3.3570  -3.3445  -3.2849  -2.7450  -2.7449  -2.7288
    -2.6766  -2.6607  -2.5323  -2.5321  -2.4358  -2.0528  -1.8868  -1.8865
    -1.7388  -1.4581  -1.4248  -1.4246  -1.4076  -1.3717  -1.3545  -1.3540
    -1.2859  -0.5442  -0.4246  -0.4245  -0.3749  -0.2400  -0.2385  -0.2372
    -0.2370  -0.1817  -0.0087   0.0399   0.0399   0.0401   0.1013   0.1014
     0.3880   0.5817   0.7217   0.7651

     the Fermi energy is    -0.0919 ev

!    total energy              =   -1462.49338490 Ry
     total all-electron energy =    -17632.480414 Ry
     estimated scf accuracy    <          6.3E-09 Ry
     smearing contrib. (-TS)   =      -0.11658898 Ry
     internal energy E=F+TS    =   -1462.37679591 Ry

     The total energy is F=E-TS. E is the sum of the following terms:
     one-electron contribution =   -1647.18981530 Ry
     hartree contribution      =     852.97561196 Ry
     xc contribution           =     -98.59202406 Ry
     ewald contribution        =     688.34475189 Ry
     one-center paw contrib.   =   -1257.91532041 Ry

     convergence has been achieved in  13 iterations

     negative rho (up, down):  5.490E-04 0.000E+00

     Forces acting on atoms (cartesian axes, Ry/au):

     atom    1 type  1   force =     0.00000000    0.00000000    0.01977798
     atom    2 type  1   force =     0.00000000    0.00063665    0.01616053
     atom    3 type  1   force =    -0.00000000   -0.00063665    0.01616053
     atom    4 type  1   force =     0.00063665   -0.00000000    0.01616053
     atom    5 type  1   force =    -0.00060772   -0.00060772    0.01712057
     atom    6 type  1   force =    -0.00060772    0.00060772    0.01712057
     atom    7 type  1   force =    -0.00063665    0.00000000    0.01616053
     atom    8 type  1   force =     0.00060772   -0.00060772    0.01712057
     atom    9 type  1   force =     0.00060772    0.00060772    0.01712057
     atom   10 type  1   force =     0.00069048    0.00069048   -0.00652890
     atom   11 type  1   force =     0.00029883   -0.00000000   -0.00544825
     atom   12 type  1   force =     0.00069048   -0.00069048   -0.00652890
     atom   13 type  1   force =     0.00000000    0.00029883   -0.00544825
     atom   14 type  1   force =     0.00000000    0.00000000   -0.00291290
     atom   15 type  1   force =     0.00000000   -0.00029883   -0.00544825
     atom   16 type  1   force =    -0.00069048    0.00069048   -0.00652890
     atom   17 type  1   force =    -0.00029883    0.00000000   -0.00544825
     atom   18 type  1   force =    -0.00069048   -0.00069048   -0.00652890
     atom   19 type  1   force =     0.00000000    0.00000000    0.01097833
     atom   20 type  1   force =     0.00000000   -0.00010075    0.00410800
     atom   21 type  1   force =     0.00000000    0.00010075    0.00410800
     atom   22 type  1   force =    -0.00010075    0.00000000    0.00410800
     atom   23 type  1   force =    -0.00024373   -0.00024373    0.00579504
     atom   24 type  1   force =    -0.00024373    0.00024373    0.00579504
     atom   25 type  1   force =     0.00010075   -0.00000000    0.00410800
     atom   26 type  1   force =     0.00024373   -0.00024373    0.00579504
     atom   27 type  1   force =     0.00024373    0.00024373    0.00579504
     atom   28 type  1   force =    -0.00022967   -0.00022967   -0.01602494
     atom   29 type  1   force =     0.00008634    0.00000000   -0.01453512
     atom   30 type  1   force =    -0.00022967    0.00022967   -0.01602494
     atom   31 type  1   force =    -0.00000000    0.00008634   -0.01453512
     atom   32 type  1   force =     0.00000000    0.00000000   -0.00512063
     atom   33 type  1   force =     0.00000000   -0.00008634   -0.01453512
     atom   34 type  1   force =     0.00022967   -0.00022967   -0.01602494
     atom   35 type  1   force =    -0.00008634    0.00000000   -0.01453512
     atom   36 type  1   force =     0.00022967    0.00022967   -0.01602494
     atom   37 type  2   force =     0.00000000    0.00000000   -0.02531046

     Total force =     0.053502     Total SCF correction =     0.000098
     Energy error            =      4.6E-03 Ry
     Gradient error          =      2.5E-02 Ry/Bohr

     number of scf cycles    =   3
     number of bfgs steps    =   2

     energy             old  =   -1462.4887682359 Ry
     energy             new  =   -1462.4933848985 Ry

     CASE: energy            _new < energy            _old

     new trust radius        =       0.0508280717 bohr
     new conv_thr            =       0.0000000253 Ry


ATOMIC_POSITIONS (alat)
Al               0.0000000000        0.0000000000        0.0000000000    0   0   0
Al               0.0000000000        0.9999999970        0.0000000000    0   0   0
Al               0.0000000000        1.9999999944        0.0000000000    0   0   0
Al               0.9999999970        0.0000000000        0.0000000000    0   0   0
Al               0.9999999970        0.9999999970        0.0000000000    0   0   0
Al               0.9999999970        1.9999999944        0.0000000000    0   0   0
Al               1.9999999944        0.0000000000        0.0000000000    0   0   0
Al               1.9999999944        0.9999999970        0.0000000000    0   0   0
Al               1.9999999944        1.9999999944        0.0000000000    0   0   0
Al               0.4999999986        0.4999999986        0.7071067670    0   0   0
Al               0.4999999986        1.4999999958        0.7071067670    0   0   0
Al               0.4999999986        2.4999999929        0.7071067670    0   0   0
Al               1.4999999958        0.4999999986        0.7071067670    0   0   0
Al               1.4999999958        1.4999999958        0.7071067670    0   0   0
Al               1.4999999958        2.4999999929        0.7071067670    0   0   0
Al               2.4999999929        0.4999999986        0.7071067670    0   0   0
Al               2.4999999929        1.4999999958        0.7071067670    0   0   0
Al               2.4999999929        2.4999999929        0.7071067670    0   0   0
Al               0.0000000000        0.0000000000        1.4422760492
Al              -0.0000000000        1.0006043083        1.4358189553
Al               0.0000000000        1.9993956832        1.4358189553
Al               1.0006043083       -0.0000000000        1.4358189553
Al               0.9918905480        0.9918905480        1.4324014598
Al               0.9918905480        2.0081094434        1.4324014598
Al               1.9993956832       -0.0000000000        1.4358189553
Al               2.0081094434        0.9918905480        1.4324014598
Al               2.0081094434        2.0081094434        1.4324014598
Al               0.5010919758        0.5010919758        2.1391434907
Al               0.4966236993        1.4999999958        2.1567735205
Al               0.5010919758        2.4989080157        2.1391434907
Al               1.4999999958        0.4966236993        2.1567735205
Al               1.4999999958        1.4999999958        2.0342745344
Al               1.4999999958        2.5033762922        2.1567735205
Al               2.4989080157        0.5010919758        2.1391434907
Al               2.5033762922        1.4999999958        2.1567735205
Al               2.4989080157        2.4989080157        2.1391434907
O                1.4999999993        1.4999999993        2.6294096463    0   0   1



     Writing config-only to output data dir ./tmp/Al.save/ :
     XML data file
     NEW-OLD atomic charge density approx. for the potential

     negative rho (up, down):  5.727E-04 0.000E+00

     total cpu time spent up to now is      261.4 secs

     Self-consistent Calculation

     iteration #  1     ecut=    40.00 Ry     beta= 0.50
     Davidson diagonalization with overlap
     ethr =  1.00E-06,  avg # of iterations = 11.0

     negative rho (up, down):  4.610E-04 0.000E+00

     total cpu time spent up to now is      268.3 secs

     total energy              =   -1462.50145475 Ry
     estimated scf accuracy    <       0.01221472 Ry

     iteration #  2     ecut=    40.00 Ry     beta= 0.50
     Davidson diagonalization with overlap
     ethr =  1.07E-05,  avg # of iterations =  1.0

     negative rho (up, down):  2.878E-04 0.000E+00

     total cpu time spent up to now is      273.5 secs

     total energy              =   -1462.50100063 Ry
     estimated scf accuracy    <       0.00348617 Ry

     iteration #  3     ecut=    40.00 Ry     beta= 0.50
     Davidson diagonalization with overlap
     ethr =  3.06E-06,  avg # of iterations =  7.0

     negative rho (up, down):  2.653E-04 0.000E+00

     total cpu time spent up to now is      278.9 secs

     total energy              =   -1462.50142809 Ry
     estimated scf accuracy    <       0.00038085 Ry

     iteration #  4     ecut=    40.00 Ry     beta= 0.50
     Davidson diagonalization with overlap
     ethr =  3.34E-07,  avg # of iterations =  6.0

     negative rho (up, down):  2.611E-04 0.000E+00

     total cpu time spent up to now is      284.5 secs

     total energy              =   -1462.50144392 Ry
     estimated scf accuracy    <       0.00025468 Ry

     iteration #  5     ecut=    40.00 Ry     beta= 0.50
     Davidson diagonalization with overlap
     ethr =  2.23E-07,  avg # of iterations =  6.0

     negative rho (up, down):  2.492E-04 0.000E+00

     total cpu time spent up to now is      289.9 secs

     total energy              =   -1462.50146785 Ry
     estimated scf accuracy    <       0.00005164 Ry

     iteration #  6     ecut=    40.00 Ry     beta= 0.50
     Davidson diagonalization with overlap
     ethr =  4.53E-08,  avg # of iterations =  4.0

     negative rho (up, down):  2.587E-04 0.000E+00

     total cpu time spent up to now is      295.4 secs

     total energy              =   -1462.50147055 Ry
     estimated scf accuracy    <       0.00002545 Ry

     iteration #  7     ecut=    40.00 Ry     beta= 0.50
     Davidson diagonalization with overlap
     ethr =  2.23E-08,  avg # of iterations =  2.0

     negative rho (up, down):  3.168E-04 0.000E+00

     total cpu time spent up to now is      300.8 secs

     total energy              =   -1462.50147136 Ry
     estimated scf accuracy    <       0.00001027 Ry

     iteration #  8     ecut=    40.00 Ry     beta= 0.50
     Davidson diagonalization with overlap
     ethr =  9.01E-09,  avg # of iterations =  6.0

     negative rho (up, down):  3.715E-04 0.000E+00

     total cpu time spent up to now is      306.2 secs

     total energy              =   -1462.50147412 Ry
     estimated scf accuracy    <       0.00000256 Ry

     iteration #  9     ecut=    40.00 Ry     beta= 0.50
     Davidson diagonalization with overlap
     ethr =  2.25E-09,  avg # of iterations =  6.0

     negative rho (up, down):  4.248E-04 0.000E+00

     total cpu time spent up to now is      311.7 secs

     total energy              =   -1462.50147449 Ry
     estimated scf accuracy    <       0.00000388 Ry

     iteration # 10     ecut=    40.00 Ry     beta= 0.50
     Davidson diagonalization with overlap
     ethr =  2.25E-09,  avg # of iterations =  2.0

     negative rho (up, down):  4.828E-04 0.000E+00

     total cpu time spent up to now is      317.0 secs

     total energy              =   -1462.50147459 Ry
     estimated scf accuracy    <       0.00000075 Ry

     iteration # 11     ecut=    40.00 Ry     beta= 0.50
     Davidson diagonalization with overlap
     ethr =  6.59E-10,  avg # of iterations =  8.0

     negative rho (up, down):  4.939E-04 0.000E+00

     total cpu time spent up to now is      322.7 secs

     total energy              =   -1462.50147477 Ry
     estimated scf accuracy    <       0.00000069 Ry

     iteration # 12     ecut=    40.00 Ry     beta= 0.50
     Davidson diagonalization with overlap
     ethr =  6.07E-10,  avg # of iterations =  1.0

     negative rho (up, down):  5.216E-04 0.000E+00

     total cpu time spent up to now is      327.8 secs

     total energy              =   -1462.50147480 Ry
     estimated scf accuracy    <       0.00000013 Ry

     iteration # 13     ecut=    40.00 Ry     beta= 0.50
     Davidson diagonalization with overlap
     ethr =  1.15E-10,  avg # of iterations =  7.0

     negative rho (up, down):  5.475E-04 0.000E+00

     total cpu time spent up to now is      332.5 secs

     End of self-consistent calculation

          k = 0.0000 0.0000 0.0000 ( 24166 PWs)   bands (ev):

   -16.8873 -10.5237  -9.2480  -8.5392  -8.5391  -8.5214  -8.5151  -7.2901
    -7.2900  -7.2822  -7.2736  -7.0760  -6.5867  -6.5590  -6.5527  -6.5525
    -5.3526  -5.3454  -5.3452  -5.3355  -5.2089  -5.2018  -5.2017  -5.0410
    -4.2455  -3.3379  -3.3376  -3.3243  -3.2677  -2.7541  -2.7540  -2.7403
    -2.6700  -2.6594  -2.5177  -2.5175  -2.4181  -2.0342  -1.8809  -1.8806
    -1.7384  -1.4843  -1.4486  -1.4484  -1.4193  -1.3822  -1.3560  -1.3556
    -1.2902  -0.5287  -0.4187  -0.4186  -0.3679  -0.2689  -0.2631  -0.2470
    -0.2469  -0.1703  -0.0084   0.0347   0.0359   0.0359   0.1082   0.1082
     0.4093   0.5997   0.7389   0.7705

     the Fermi energy is    -0.0928 ev

!    total energy              =   -1462.50147480 Ry
     total all-electron energy =    -17632.488504 Ry
     estimated scf accuracy    <       0.00000001 Ry
     smearing contrib. (-TS)   =      -0.11799059 Ry
     internal energy E=F+TS    =   -1462.38348421 Ry

     The total energy is F=E-TS. E is the sum of the following terms:
     one-electron contribution =   -1654.11944489 Ry
     hartree contribution      =     856.47488810 Ry
     xc contribution           =     -98.65623533 Ry
     ewald contribution        =     691.84095566 Ry
     one-center paw contrib.   =   -1257.92364776 Ry

     convergence has been achieved in  13 iterations

     negative rho (up, down):  5.475E-04 0.000E+00

     Forces acting on atoms (cartesian axes, Ry/au):

     atom    1 type  1   force =     0.00000000    0.00000000    0.02064382
     atom    2 type  1   force =    -0.00000000    0.00059920    0.01693433
     atom    3 type  1   force =     0.00000000   -0.00059920    0.01693433
     atom    4 type  1   force =     0.00059920    0.00000000    0.01693433
     atom    5 type  1   force =    -0.00080971   -0.00080971    0.01826877
     atom    6 type  1   force =    -0.00080971    0.00080971    0.01826877
     atom    7 type  1   force =    -0.00059920   -0.00000000    0.01693433
     atom    8 type  1   force =     0.00080971   -0.00080971    0.01826877
     atom    9 type  1   force =     0.00080971    0.00080971    0.01826877
     atom   10 type  1   force =     0.00048021    0.00048021   -0.00678429
     atom   11 type  1   force =     0.00040263    0.00000000   -0.00598815
     atom   12 type  1   force =     0.00048021   -0.00048021   -0.00678429
     atom   13 type  1   force =     0.00000000    0.00040263   -0.00598815
     atom   14 type  1   force =     0.00000000    0.00000000   -0.00308230
     atom   15 type  1   force =     0.00000000   -0.00040263   -0.00598815
     atom   16 type  1   force =    -0.00048021    0.00048021   -0.00678429
     atom   17 type  1   force =    -0.00040263    0.00000000   -0.00598815
     atom   18 type  1   force =    -0.00048021   -0.00048021   -0.00678429
     atom   19 type  1   force =     0.00000000    0.00000000    0.00790315
     atom   20 type  1   force =     0.00000000   -0.00006638    0.00290725
     atom   21 type  1   force =     0.00000000    0.00006638    0.00290725
     atom   22 type  1   force =    -0.00006638    0.00000000    0.00290725
     atom   23 type  1   force =    -0.00079808   -0.00079808    0.00346411
     atom   24 type  1   force =    -0.00079808    0.00079808    0.00346411
     atom   25 type  1   force =     0.00006638   -0.00000000    0.00290725
     atom   26 type  1   force =     0.00079808   -0.00079808    0.00346411
     atom   27 type  1   force =     0.00079808    0.00079808    0.00346411
     atom   28 type  1   force =    -0.00031208   -0.00031208   -0.01494987
     atom   29 type  1   force =     0.00060658    0.00000000   -0.01404396
     atom   30 type  1   force =    -0.00031208    0.00031208   -0.01494987
     atom   31 type  1   force =     0.00000000    0.00060658   -0.01404396
     atom   32 type  1   force =     0.00000000    0.00000000   -0.00065098
     atom   33 type  1   force =     0.00000000   -0.00060658   -0.01404396
     atom   34 type  1   force =     0.00031208   -0.00031208   -0.01494987
     atom   35 type  1   force =    -0.00060658    0.00000000   -0.01404396
     atom   36 type  1   force =     0.00031208    0.00031208   -0.01494987
     atom   37 type  2   force =     0.00000000    0.00000000   -0.02404645

     Total force =     0.049124     Total SCF correction =     0.000158
     Energy error            =      8.1E-03 Ry
     Gradient error          =      2.4E-02 Ry/Bohr

     number of scf cycles    =   4
     number of bfgs steps    =   3

     energy             old  =   -1462.4933848985 Ry
     energy             new  =   -1462.5014748020 Ry

     CASE: energy            _new < energy            _old

     new trust radius        =       0.0762421076 bohr
     new conv_thr            =       0.0000000240 Ry


ATOMIC_POSITIONS (alat)
Al               0.0000000000        0.0000000000        0.0000000000    0   0   0
Al               0.0000000000        0.9999999970        0.0000000000    0   0   0
Al               0.0000000000        1.9999999944        0.0000000000    0   0   0
Al               0.9999999970        0.0000000000        0.0000000000    0   0   0
Al               0.9999999970        0.9999999970        0.0000000000    0   0   0
Al               0.9999999970        1.9999999944        0.0000000000    0   0   0
Al               1.9999999944        0.0000000000        0.0000000000    0   0   0
Al               1.9999999944        0.9999999970        0.0000000000    0   0   0
Al               1.9999999944        1.9999999944        0.0000000000    0   0   0
Al               0.4999999986        0.4999999986        0.7071067670    0   0   0
Al               0.4999999986        1.4999999958        0.7071067670    0   0   0
Al               0.4999999986        2.4999999929        0.7071067670    0   0   0
Al               1.4999999958        0.4999999986        0.7071067670    0   0   0
Al               1.4999999958        1.4999999958        0.7071067670    0   0   0
Al               1.4999999958        2.4999999929        0.7071067670    0   0   0
Al               2.4999999929        0.4999999986        0.7071067670    0   0   0
Al               2.4999999929        1.4999999958        0.7071067670    0   0   0
Al               2.4999999929        2.4999999929        0.7071067670    0   0   0
Al               0.0000000000        0.0000000000        1.4516436211
Al              -0.0000000000        1.0005274682        1.4392825667
Al               0.0000000000        1.9994725233        1.4392825667
Al               1.0005274682        0.0000000000        1.4392825667
Al               0.9917093139        0.9917093139        1.4373248218
Al               0.9917093139        2.0082906775        1.4373248218
Al               1.9994725233       -0.0000000000        1.4392825667
Al               2.0082906775        0.9917093139        1.4373248218
Al               2.0082906775        2.0082906775        1.4373248218
Al               0.5009111816        0.5009111816        2.1250122697
Al               0.4965684038        1.4999999958        2.1437961874
Al               0.5009111816        2.4990888099        2.1250122697
Al               1.4999999958        0.4965684038        2.1437961874
Al               1.4999999958        1.4999999958        2.0215947599
Al               1.4999999958        2.5034315877        2.1437961874
Al               2.4990888099        0.5009111816        2.1250122697
Al               2.5034315877        1.4999999958        2.1437961874
Al               2.4990888099        2.4990888099        2.1250122697
O                1.4999999993        1.4999999993        2.6154777893    0   0   1



     Writing config-only to output data dir ./tmp/Al.save/ :
     XML data file
     NEW-OLD atomic charge density approx. for the potential

     negative rho (up, down):  5.885E-04 0.000E+00

     total cpu time spent up to now is      338.8 secs

     Self-consistent Calculation

     iteration #  1     ecut=    40.00 Ry     beta= 0.50
     Davidson diagonalization with overlap
     ethr =  1.00E-06,  avg # of iterations = 15.0

     negative rho (up, down):  4.066E-04 0.000E+00

     total cpu time spent up to now is      346.3 secs

     total energy              =   -1462.51159177 Ry
     estimated scf accuracy    <       0.02705557 Ry

     iteration #  2     ecut=    40.00 Ry     beta= 0.50
     Davidson diagonalization with overlap
     ethr =  2.37E-05,  avg # of iterations =  1.0

     negative rho (up, down):  2.019E-04 0.000E+00

     total cpu time spent up to now is      351.5 secs

     total energy              =   -1462.51072509 Ry
     estimated scf accuracy    <       0.00715790 Ry

     iteration #  3     ecut=    40.00 Ry     beta= 0.50
     Davidson diagonalization with overlap
     ethr =  6.28E-06,  avg # of iterations =  7.0

     negative rho (up, down):  1.877E-04 0.000E+00

     total cpu time spent up to now is      357.0 secs

     total energy              =   -1462.51157416 Ry
     estimated scf accuracy    <       0.00061174 Ry

     iteration #  4     ecut=    40.00 Ry     beta= 0.50
     Davidson diagonalization with overlap
     ethr =  5.37E-07,  avg # of iterations =  7.0

     negative rho (up, down):  1.744E-04 0.000E+00

     total cpu time spent up to now is      362.6 secs

     total energy              =   -1462.51178904 Ry
     estimated scf accuracy    <       0.00134617 Ry

     iteration #  5     ecut=    40.00 Ry     beta= 0.50
     Davidson diagonalization with overlap
     ethr =  5.37E-07,  avg # of iterations =  2.0

     negative rho (up, down):  1.914E-04 0.000E+00

     total cpu time spent up to now is      367.8 secs

     total energy              =   -1462.51166168 Ry
     estimated scf accuracy    <       0.00276501 Ry

     iteration #  6     ecut=    40.00 Ry     beta= 0.50
     Davidson diagonalization with overlap
     ethr =  5.37E-07,  avg # of iterations =  1.0

     negative rho (up, down):  3.921E-04 0.000E+00

     total cpu time spent up to now is      372.9 secs

     total energy              =   -1462.51140249 Ry
     estimated scf accuracy    <       0.00102595 Ry

     iteration #  7     ecut=    40.00 Ry     beta= 0.50
     Davidson diagonalization with overlap
     ethr =  5.37E-07,  avg # of iterations =  9.0

     negative rho (up, down):  2.114E-04 0.000E+00

     total cpu time spent up to now is      379.0 secs

     total energy              =   -1462.51161771 Ry
     estimated scf accuracy    <       0.01390702 Ry

     iteration #  8     ecut=    40.00 Ry     beta= 0.50
     Davidson diagonalization with overlap
     ethr =  5.37E-07,  avg # of iterations =  7.0

     negative rho (up, down):  1.823E-04 0.000E+00

     total cpu time spent up to now is      384.6 secs

     total energy              =   -1462.51163097 Ry
     estimated scf accuracy    <       0.00369011 Ry

     iteration #  9     ecut=    40.00 Ry     beta= 0.50
     Davidson diagonalization with overlap
     ethr =  5.37E-07,  avg # of iterations =  2.0

     negative rho (up, down):  2.055E-04 0.000E+00

     total cpu time spent up to now is      389.8 secs

     total energy              =   -1462.51169555 Ry
     estimated scf accuracy    <       0.00154793 Ry

     iteration # 10     ecut=    40.00 Ry     beta= 0.50
     Davidson diagonalization with overlap
     ethr =  5.37E-07,  avg # of iterations =  1.0

     negative rho (up, down):  2.243E-04 0.000E+00

     total cpu time spent up to now is      394.9 secs

     total energy              =   -1462.51163746 Ry
     estimated scf accuracy    <       0.00171137 Ry

     iteration # 11     ecut=    40.00 Ry     beta= 0.50
     Davidson diagonalization with overlap
     ethr =  5.37E-07,  avg # of iterations =  2.0

     negative rho (up, down):  2.457E-04 0.000E+00

     total cpu time spent up to now is      400.0 secs

     total energy              =   -1462.51162159 Ry
     estimated scf accuracy    <       0.00072996 Ry

     iteration # 12     ecut=    40.00 Ry     beta= 0.50
     Davidson diagonalization with overlap
     ethr =  5.37E-07,  avg # of iterations =  5.0

     negative rho (up, down):  2.616E-04 0.000E+00

     total cpu time spent up to now is      405.3 secs

     total energy              =   -1462.51161469 Ry
     estimated scf accuracy    <       0.00023344 Ry

     iteration # 13     ecut=    40.00 Ry     beta= 0.50
     Davidson diagonalization with overlap
     ethr =  2.05E-07,  avg # of iterations =  6.0

     negative rho (up, down):  2.667E-04 0.000E+00

     total cpu time spent up to now is      411.0 secs

     total energy              =   -1462.51166661 Ry
     estimated scf accuracy    <       0.00017095 Ry

     iteration # 14     ecut=    40.00 Ry     beta= 0.50
     Davidson diagonalization with overlap
     ethr =  1.50E-07,  avg # of iterations =  1.0

     negative rho (up, down):  2.729E-04 0.000E+00

     total cpu time spent up to now is      416.1 secs

     total energy              =   -1462.51167013 Ry
     estimated scf accuracy    <       0.00018248 Ry

     iteration # 15     ecut=    40.00 Ry     beta= 0.50
     Davidson diagonalization with overlap
     ethr =  1.50E-07,  avg # of iterations =  1.0

     negative rho (up, down):  2.735E-04 0.000E+00

     total cpu time spent up to now is      421.3 secs

     total energy              =   -1462.51167095 Ry
     estimated scf accuracy    <       0.00023834 Ry

     iteration # 16     ecut=    40.00 Ry     beta= 0.50
     Davidson diagonalization with overlap
     ethr =  1.50E-07,  avg # of iterations =  1.0

     negative rho (up, down):  2.800E-04 0.000E+00

     total cpu time spent up to now is      426.5 secs

     total energy              =   -1462.51167312 Ry
     estimated scf accuracy    <       0.00024786 Ry

     iteration # 17     ecut=    40.00 Ry     beta= 0.50
     Davidson diagonalization with overlap
     ethr =  1.50E-07,  avg # of iterations =  1.0

     negative rho (up, down):  2.883E-04 0.000E+00

     total cpu time spent up to now is      431.6 secs

     total energy              =   -1462.51167232 Ry
     estimated scf accuracy    <       0.00029827 Ry

     iteration # 18     ecut=    40.00 Ry     beta= 0.50
     Davidson diagonalization with overlap
     ethr =  1.50E-07,  avg # of iterations =  1.0

     negative rho (up, down):  3.144E-04 0.000E+00

     total cpu time spent up to now is      436.7 secs

     total energy              =   -1462.51166943 Ry
     estimated scf accuracy    <       0.00027641 Ry

     iteration # 19     ecut=    40.00 Ry     beta= 0.50
     Davidson diagonalization with overlap
     ethr =  1.50E-07,  avg # of iterations =  1.0

     negative rho (up, down):  3.313E-04 0.000E+00

     total cpu time spent up to now is      441.9 secs

     total energy              =   -1462.51166822 Ry
     estimated scf accuracy    <       0.00022375 Ry

     iteration # 20     ecut=    40.00 Ry     beta= 0.50
     Davidson diagonalization with overlap
     ethr =  1.50E-07,  avg # of iterations =  1.0

     negative rho (up, down):  3.718E-04 0.000E+00

     total cpu time spent up to now is      447.3 secs

     total energy              =   -1462.51166537 Ry
     estimated scf accuracy    <       0.00018414 Ry

     iteration # 21     ecut=    40.00 Ry     beta= 0.50
     Davidson diagonalization with overlap
     ethr =  1.50E-07,  avg # of iterations =  1.0

     negative rho (up, down):  6.324E-04 0.000E+00

     total cpu time spent up to now is      452.5 secs

     total energy              =   -1462.51165232 Ry
     estimated scf accuracy    <       0.00012077 Ry

     iteration # 22     ecut=    40.00 Ry     beta= 0.50
     Davidson diagonalization with overlap
     ethr =  1.06E-07,  avg # of iterations =  6.0

     negative rho (up, down):  6.161E-04 0.000E+00

     total cpu time spent up to now is      457.9 secs

     total energy              =   -1462.51166080 Ry
     estimated scf accuracy    <       0.00002384 Ry

     iteration # 23     ecut=    40.00 Ry     beta= 0.50
     Davidson diagonalization with overlap
     ethr =  2.09E-08,  avg # of iterations =  2.0

     negative rho (up, down):  5.592E-04 0.000E+00

     total cpu time spent up to now is      463.2 secs

     total energy              =   -1462.51166213 Ry
     estimated scf accuracy    <       0.00000454 Ry

     iteration # 24     ecut=    40.00 Ry     beta= 0.50
     Davidson diagonalization with overlap
     ethr =  3.99E-09,  avg # of iterations =  8.0

     negative rho (up, down):  5.250E-04 0.000E+00

     total cpu time spent up to now is      468.8 secs

     total energy              =   -1462.51166269 Ry
     estimated scf accuracy    <       0.00000049 Ry

     iteration # 25     ecut=    40.00 Ry     beta= 0.50
     Davidson diagonalization with overlap
     ethr =  4.28E-10,  avg # of iterations =  5.0

     negative rho (up, down):  5.257E-04 0.000E+00

     total cpu time spent up to now is      474.4 secs

     total energy              =   -1462.51166279 Ry
     estimated scf accuracy    <       0.00000012 Ry

     iteration # 26     ecut=    40.00 Ry     beta= 0.50
     Davidson diagonalization with overlap
     ethr =  1.09E-10,  avg # of iterations =  7.0

     negative rho (up, down):  5.280E-04 0.000E+00

     total cpu time spent up to now is      480.2 secs

     total energy              =   -1462.51166282 Ry
     estimated scf accuracy    <       0.00000003 Ry

     iteration # 27     ecut=    40.00 Ry     beta= 0.50
     Davidson diagonalization with overlap
     c_bands:  2 eigenvalues not converged
     ethr =  2.64E-11,  avg # of iterations = 20.0

     negative rho (up, down):  5.506E-04 0.000E+00

     total cpu time spent up to now is      485.4 secs

     End of self-consistent calculation

          k = 0.0000 0.0000 0.0000 ( 24166 PWs)   bands (ev):

   -16.8726 -10.5385  -9.2802  -8.5563  -8.5563  -8.5323  -8.5321  -7.3222
    -7.3222  -7.3140  -7.3014  -7.0518  -6.6055  -6.5743  -6.5689  -6.5688
    -5.3829  -5.3771  -5.3769  -5.3687  -5.1844  -5.1755  -5.1754  -5.0099
    -4.2132  -3.3104  -3.3102  -3.2940  -3.2425  -2.7710  -2.7710  -2.7601
    -2.6855  -2.6325  -2.4950  -2.4948  -2.3897  -2.0053  -1.8749  -1.8747
    -1.7373  -1.5203  -1.4834  -1.4832  -1.4407  -1.3998  -1.3570  -1.3567
    -1.2909  -0.5069  -0.4151  -0.4151  -0.3593  -0.3089  -0.3005  -0.2544
    -0.2543  -0.1454  -0.0038   0.0272   0.0289   0.0289   0.1244   0.1244
     0.4421   0.6265   0.7653   0.7799

     the Fermi energy is    -0.0925 ev

!    total energy              =   -1462.51166283 Ry
     total all-electron energy =    -17632.498692 Ry
     estimated scf accuracy    <          4.5E-09 Ry
     smearing contrib. (-TS)   =      -0.11902916 Ry
     internal energy E=F+TS    =   -1462.39263366 Ry

     The total energy is F=E-TS. E is the sum of the following terms:
     one-electron contribution =   -1664.65187953 Ry
     hartree contribution      =     861.79756749 Ry
     xc contribution           =     -98.75951290 Ry
     ewald contribution        =     697.15971902 Ry
     one-center paw contrib.   =   -1257.93852774 Ry

     convergence has been achieved in  27 iterations

     negative rho (up, down):  5.506E-04 0.000E+00

     Forces acting on atoms (cartesian axes, Ry/au):

     atom    1 type  1   force =     0.00000000    0.00000000    0.02190517
     atom    2 type  1   force =     0.00000000    0.00054737    0.01810667
     atom    3 type  1   force =    -0.00000000   -0.00054737    0.01810667
     atom    4 type  1   force =     0.00054737   -0.00000000    0.01810667
     atom    5 type  1   force =    -0.00111074   -0.00111074    0.01997940
     atom    6 type  1   force =    -0.00111074    0.00111074    0.01997940
     atom    7 type  1   force =    -0.00054737    0.00000000    0.01810667
     atom    8 type  1   force =     0.00111074   -0.00111074    0.01997940
     atom    9 type  1   force =     0.00111074    0.00111074    0.01997940
     atom   10 type  1   force =     0.00017783    0.00017783   -0.00725113
     atom   11 type  1   force =     0.00052245    0.00000000   -0.00686902
     atom   12 type  1   force =     0.00017783   -0.00017783   -0.00725113
     atom   13 type  1   force =     0.00000000    0.00052245   -0.00686902
     atom   14 type  1   force =     0.00000000    0.00000000   -0.00324974
     atom   15 type  1   force =    -0.00000000   -0.00052245   -0.00686902
     atom   16 type  1   force =    -0.00017783    0.00017783   -0.00725113
     atom   17 type  1   force =    -0.00052245   -0.00000000   -0.00686902
     atom   18 type  1   force =    -0.00017783   -0.00017783   -0.00725113
     atom   19 type  1   force =     0.00000000    0.00000000    0.00261699
     atom   20 type  1   force =     0.00000000   -0.00000198    0.00075227
     atom   21 type  1   force =     0.00000000    0.00000198    0.00075227
     atom   22 type  1   force =    -0.00000198    0.00000000    0.00075227
     atom   23 type  1   force =    -0.00142993   -0.00142993   -0.00023291
     atom   24 type  1   force =    -0.00142993    0.00142993   -0.00023291
     atom   25 type  1   force =     0.00000198   -0.00000000    0.00075227
     atom   26 type  1   force =     0.00142993   -0.00142993   -0.00023291
     atom   27 type  1   force =     0.00142993    0.00142993   -0.00023291
     atom   28 type  1   force =    -0.00029553   -0.00029553   -0.01281536
     atom   29 type  1   force =     0.00125102    0.00000000   -0.01296676
     atom   30 type  1   force =    -0.00029553    0.00029553   -0.01281536
     atom   31 type  1   force =     0.00000000    0.00125102   -0.01296676
     atom   32 type  1   force =     0.00000000    0.00000000    0.00217323
     atom   33 type  1   force =    -0.00000000   -0.00125102   -0.01296676
     atom   34 type  1   force =     0.00029553   -0.00029553   -0.01281536
     atom   35 type  1   force =    -0.00125102    0.00000000   -0.01296676
     atom   36 type  1   force =     0.00029553    0.00029553   -0.01281536
     atom   37 type  2   force =     0.00000000    0.00000000   -0.01825829

     Total force =     0.041234     Total SCF correction =     0.000068
     Energy error            =      1.0E-02 Ry
     Gradient error          =      1.8E-02 Ry/Bohr

     number of scf cycles    =   5
     number of bfgs steps    =   4

     energy             old  =   -1462.5014748020 Ry
     energy             new  =   -1462.5116628265 Ry

     CASE: energy            _new < energy            _old

     new trust radius        =       0.1143631614 bohr
     new conv_thr            =       0.0000000183 Ry


ATOMIC_POSITIONS (alat)
Al               0.0000000000        0.0000000000        0.0000000000    0   0   0
Al               0.0000000000        0.9999999970        0.0000000000    0   0   0
Al               0.0000000000        1.9999999944        0.0000000000    0   0   0
Al               0.9999999970        0.0000000000        0.0000000000    0   0   0
Al               0.9999999970        0.9999999970        0.0000000000    0   0   0
Al               0.9999999970        1.9999999944        0.0000000000    0   0   0
Al               1.9999999944        0.0000000000        0.0000000000    0   0   0
Al               1.9999999944        0.9999999970        0.0000000000    0   0   0
Al               1.9999999944        1.9999999944        0.0000000000    0   0   0
Al               0.4999999986        0.4999999986        0.7071067670    0   0   0
Al               0.4999999986        1.4999999958        0.7071067670    0   0   0
Al               0.4999999986        2.4999999929        0.7071067670    0   0   0
Al               1.4999999958        0.4999999986        0.7071067670    0   0   0
Al               1.4999999958        1.4999999958        0.7071067670    0   0   0
Al               1.4999999958        2.4999999929        0.7071067670    0   0   0
Al               2.4999999929        0.4999999986        0.7071067670    0   0   0
Al               2.4999999929        1.4999999958        0.7071067670    0   0   0
Al               2.4999999929        2.4999999929        0.7071067670    0   0   0
Al               0.0000000000        0.0000000000        1.4605859852
Al              -0.0000000000        1.0004784384        1.4423589263
Al               0.0000000000        1.9995215531        1.4423589263
Al               1.0004784384        0.0000000000        1.4423589263
Al               0.9904653274        0.9904653274        1.4407247577
Al               0.9904653274        2.0095346640        1.4407247577
Al               1.9995215531       -0.0000000000        1.4423589263
Al               2.0095346640        0.9904653274        1.4407247577
Al               2.0095346640        2.0095346640        1.4407247577
Al               0.5005766923        0.5005766923        2.1038172470
Al               0.4974302791        1.4999999958        2.1232089384
Al               0.5005766923        2.4994232992        2.1038172470
Al               1.4999999958        0.4974302791        2.1232089384
Al               1.4999999958        1.4999999958        2.0071040238
Al               1.4999999958        2.5025697124        2.1232089384
Al               2.4994232992        0.5005766923        2.1038172470
Al               2.5025697124        1.4999999958        2.1232089384
Al               2.4994232992        2.4994232992        2.1038172470
O                1.4999999993        1.4999999993        2.5965875251    0   0   1



     Writing config-only to output data dir ./tmp/Al.save/ :
     XML data file
     NEW-OLD atomic charge density approx. for the potential

     negative rho (up, down):  6.316E-04 0.000E+00

     total cpu time spent up to now is      491.7 secs

     Self-consistent Calculation

     iteration #  1     ecut=    40.00 Ry     beta= 0.50
     Davidson diagonalization with overlap
     ethr =  1.00E-06,  avg # of iterations = 15.0

     negative rho (up, down):  2.585E-04 0.000E+00

     total cpu time spent up to now is      499.5 secs

     total energy              =   -1462.52254890 Ry
     estimated scf accuracy    <       0.04091304 Ry

     iteration #  2     ecut=    40.00 Ry     beta= 0.50
     Davidson diagonalization with overlap
     ethr =  3.59E-05,  avg # of iterations =  1.0

     negative rho (up, down):  6.612E-05 0.000E+00

     total cpu time spent up to now is      504.8 secs

     total energy              =   -1462.52145241 Ry
     estimated scf accuracy    <       0.00977251 Ry

     iteration #  3     ecut=    40.00 Ry     beta= 0.50
     Davidson diagonalization with overlap
     ethr =  8.57E-06,  avg # of iterations =  6.0

     negative rho (up, down):  6.787E-05 0.000E+00

     total cpu time spent up to now is      510.3 secs

     total energy              =   -1462.52270567 Ry
     estimated scf accuracy    <       0.00099382 Ry

     iteration #  4     ecut=    40.00 Ry     beta= 0.50
     Davidson diagonalization with overlap
[...]
     atom    2 type  1   force =     0.00000000   -0.00219641    0.02822120
     atom    3 type  1   force =     0.00000000    0.00219641    0.02822120
     atom    4 type  1   force =    -0.00219641    0.00000000    0.02822120
     atom    5 type  1   force =    -0.00285607   -0.00285607    0.03264659
     atom    6 type  1   force =    -0.00285607    0.00285607    0.03264659
     atom    7 type  1   force =     0.00219641    0.00000000    0.02822120
     atom    8 type  1   force =     0.00285607   -0.00285607    0.03264659
     atom    9 type  1   force =     0.00285607    0.00285607    0.03264659
     atom   10 type  1   force =    -0.00047741   -0.00047741   -0.02881022
     atom   11 type  1   force =     0.00293513    0.00000000   -0.03316735
     atom   12 type  1   force =    -0.00047741    0.00047741   -0.02881022
     atom   13 type  1   force =     0.00000000    0.00293513   -0.03316735
     atom   14 type  1   force =     0.00000000    0.00000000   -0.02589779
     atom   15 type  1   force =    -0.00000000   -0.00293513   -0.03316735
     atom   16 type  1   force =     0.00047741   -0.00047741   -0.02881022
     atom   17 type  1   force =    -0.00293513    0.00000000   -0.03316735
     atom   18 type  1   force =     0.00047741    0.00047741   -0.02881022
     atom   19 type  1   force =     0.00000000    0.00000000   -0.00024081
     atom   20 type  1   force =     0.00000000   -0.00053566    0.00128796
     atom   21 type  1   force =    -0.00000000    0.00053566    0.00128796
     atom   22 type  1   force =    -0.00053566   -0.00000000    0.00128796
     atom   23 type  1   force =     0.00063604    0.00063604   -0.00088194
     atom   24 type  1   force =     0.00063604   -0.00063604   -0.00088194
     atom   25 type  1   force =     0.00053566    0.00000000    0.00128796
     atom   26 type  1   force =    -0.00063604    0.00063604   -0.00088194
     atom   27 type  1   force =    -0.00063604   -0.00063604   -0.00088194
     atom   28 type  1   force =    -0.00040093   -0.00040093   -0.00047378
     atom   29 type  1   force =    -0.00036453   -0.00000000    0.00032812
     atom   30 type  1   force =    -0.00040093    0.00040093   -0.00047378
     atom   31 type  1   force =     0.00000000   -0.00036453    0.00032812
     atom   32 type  1   force =     0.00000000    0.00000000    0.00009230
     atom   33 type  1   force =    -0.00000000    0.00036453    0.00032812
     atom   34 type  1   force =     0.00040093   -0.00040093   -0.00047378
     atom   35 type  1   force =     0.00036453    0.00000000    0.00032812
     atom   36 type  1   force =     0.00040093    0.00040093   -0.00047378
     atom   37 type  2   force =     0.00000000    0.00000000    0.00066896

     Total force =     0.004218     Total SCF correction =     0.000039
     Energy error            =      4.4E-05 Ry
     Gradient error          =      1.3E-03 Ry/Bohr

     number of scf cycles    =  22
     number of bfgs steps    =  21

     energy             old  =   -1462.6027076756 Ry
     energy             new  =   -1462.6027519068 Ry

     CASE: energy            _new < energy            _old

     new trust radius        =       0.0093788724 bohr
     new conv_thr            =       0.0000000010 Ry


ATOMIC_POSITIONS (alat)
Al               0.0000000000        0.0000000000        0.0000000000    0   0   0
Al               0.0000000000        0.9999999969        0.0000000000    0   0   0
Al               0.0000000000        1.9999999943        0.0000000000    0   0   0
Al               0.9999999969        0.0000000000        0.0000000000    0   0   0
Al               0.9999999969        0.9999999969        0.0000000000    0   0   0
Al               0.9999999969        1.9999999943        0.0000000000    0   0   0
Al               1.9999999943        0.0000000000        0.0000000000    0   0   0
Al               1.9999999943        0.9999999969        0.0000000000    0   0   0
Al               1.9999999943        1.9999999943        0.0000000000    0   0   0
Al               0.4999999986        0.4999999986        0.7071067670    0   0   0
Al               0.4999999986        1.4999999957        0.7071067670    0   0   0
Al               0.4999999986        2.4999999927        0.7071067670    0   0   0
Al               1.4999999957        0.4999999986        0.7071067670    0   0   0
Al               1.4999999957        1.4999999957        0.7071067670    0   0   0
Al               1.4999999957        2.4999999927        0.7071067670    0   0   0
Al               2.4999999927        0.4999999986        0.7071067670    0   0   0
Al               2.4999999927        1.4999999957        0.7071067670    0   0   0
Al               2.4999999927        2.4999999927        0.7071067670    0   0   0
Al               0.0000000000        0.0000000000        1.3087012372
Al               0.0000000000        1.0093133838        1.3190522899
Al               0.0000000000        1.9906866075        1.3190522899
Al               1.0093133838        0.0000000000        1.3190522899
Al               1.0014805551        1.0014805551        1.3245016372
Al               1.0014805551        1.9985194361        1.3245016372
Al               1.9906866075       -0.0000000000        1.3190522899
Al               1.9985194361        1.0014805551        1.3245016372
Al               1.9985194361        1.9985194361        1.3245016372
Al               0.4983665402        0.4983665402        1.8981465296
Al               0.5042428089        1.4999999957        1.9372058730
Al               0.4983665402        2.5016334511        1.8981465296
Al               1.4999999957        0.5042428089        1.9372058730
Al               1.4999999957        1.4999999957        1.9107237630
Al               1.4999999957        2.4957571824        1.9372058730
Al               2.5016334511        0.4983665402        1.8981465296
Al               2.4957571824        1.4999999957        1.9372058730
Al               2.5016334511        2.5016334511        1.8981465296
O                1.4999999992        1.4999999992        2.4953709338    0   0   1



     Writing config-only to output data dir ./tmp/Al.save/ :
     XML data file
     NEW-OLD atomic charge density approx. for the potential

     negative rho (up, down):  5.874E-04 0.000E+00

     total cpu time spent up to now is     2494.6 secs

     Self-consistent Calculation

     iteration #  1     ecut=    40.00 Ry     beta= 0.50
     Davidson diagonalization with overlap
     ethr =  1.00E-06,  avg # of iterations =  2.0

     Threshold (ethr) on eigenvalues was too large:
     Diagonalizing with lowered threshold

     Davidson diagonalization with overlap
     ethr =  1.35E-08,  avg # of iterations = 12.0

     negative rho (up, down):  5.888E-04 0.000E+00

     total cpu time spent up to now is     2512.5 secs

     total energy              =   -1462.60280205 Ry
     estimated scf accuracy    <       0.00003776 Ry

     iteration #  2     ecut=    40.00 Ry     beta= 0.50
     Davidson diagonalization with overlap
     ethr =  3.31E-08,  avg # of iterations =  1.0

     negative rho (up, down):  5.894E-04 0.000E+00

     total cpu time spent up to now is     2522.5 secs

     total energy              =   -1462.60279670 Ry
     estimated scf accuracy    <       0.00001452 Ry

     iteration #  3     ecut=    40.00 Ry     beta= 0.50
     Davidson diagonalization with overlap
     ethr =  1.27E-08,  avg # of iterations =  2.0

     negative rho (up, down):  5.877E-04 0.000E+00

     total cpu time spent up to now is     2533.0 secs

     total energy              =   -1462.60279988 Ry
     estimated scf accuracy    <       0.00000072 Ry

     iteration #  4     ecut=    40.00 Ry     beta= 0.50
     Davidson diagonalization with overlap
     ethr =  6.33E-10,  avg # of iterations = 11.0

     negative rho (up, down):  5.872E-04 0.000E+00

     total cpu time spent up to now is     2546.8 secs

     total energy              =   -1462.60280022 Ry
     estimated scf accuracy    <       0.00000011 Ry

     iteration #  5     ecut=    40.00 Ry     beta= 0.50
     Davidson diagonalization with overlap
     ethr =  9.36E-11,  avg # of iterations =  6.0

     negative rho (up, down):  5.861E-04 0.000E+00

     total cpu time spent up to now is     2557.2 secs

     total energy              =   -1462.60280022 Ry
     estimated scf accuracy    <       0.00000007 Ry

     iteration #  6     ecut=    40.00 Ry     beta= 0.50
     Davidson diagonalization with overlap
     ethr =  6.56E-11,  avg # of iterations =  2.0

     negative rho (up, down):  5.854E-04 0.000E+00

     total cpu time spent up to now is     2568.1 secs

     total energy              =   -1462.60280023 Ry
     estimated scf accuracy    <       0.00000001 Ry

     iteration #  7     ecut=    40.00 Ry     beta= 0.50
     Davidson diagonalization with overlap
     ethr =  1.28E-11,  avg # of iterations =  7.0

     negative rho (up, down):  5.854E-04 0.000E+00

     total cpu time spent up to now is     2580.6 secs

     total energy              =   -1462.60280023 Ry
     estimated scf accuracy    <          5.1E-09 Ry

     iteration #  8     ecut=    40.00 Ry     beta= 0.50
     Davidson diagonalization with overlap
     ethr =  4.49E-12,  avg # of iterations =  2.0

     negative rho (up, down):  5.855E-04 0.000E+00

     total cpu time spent up to now is     2589.6 secs

     total energy              =   -1462.60280022 Ry
     estimated scf accuracy    <          2.4E-09 Ry

     iteration #  9     ecut=    40.00 Ry     beta= 0.50
     Davidson diagonalization with overlap
     ethr =  2.14E-12,  avg # of iterations =  8.0

     negative rho (up, down):  5.879E-04 0.000E+00

     total cpu time spent up to now is     2598.9 secs

     End of self-consistent calculation

          k = 0.0000 0.0000 0.0000 ( 24166 PWs)   bands (ev):

   -16.5548 -11.1278  -9.3750  -9.1496  -9.1411  -9.1410  -9.1130  -7.4171
    -7.4168  -7.4167  -7.3719  -7.1864  -7.1826  -7.1770  -7.1769  -7.0126
    -5.4754  -5.4752  -5.4706  -5.4518  -5.1522  -5.1242  -5.1241  -5.0047
    -3.8443  -3.3955  -3.3682  -3.3680  -3.3489  -3.2572  -3.2570  -3.2413
    -3.1926  -2.3727  -2.2363  -2.2361  -2.1259  -2.0900  -2.0719  -2.0718
    -2.0093  -1.7599  -1.6698  -1.6697  -1.6532  -1.4789  -1.3766  -1.3762
    -1.0636  -0.7507  -0.7489  -0.6912  -0.6912  -0.4435  -0.4406  -0.3613
    -0.3612   0.0778   0.1562   0.1563   0.1913   0.3376   0.4700   0.4701
     0.6613   0.6624   0.8496   0.8737

     the Fermi energy is    -0.1233 ev

!    total energy              =   -1462.60280022 Ry
     total all-electron energy =    -17632.589830 Ry
     estimated scf accuracy    <          4.5E-10 Ry
     smearing contrib. (-TS)   =      -0.01667477 Ry
     internal energy E=F+TS    =   -1462.58612545 Ry

     The total energy is F=E-TS. E is the sum of the following terms:
     one-electron contribution =   -1848.89652329 Ry
     hartree contribution      =     954.31416738 Ry
     xc contribution           =    -100.31666590 Ry
     ewald contribution        =     790.53548617 Ry
     one-center paw contrib.   =   -1258.22258981 Ry

     convergence has been achieved in   9 iterations

     negative rho (up, down):  5.879E-04 0.000E+00

     Forces acting on atoms (cartesian axes, Ry/au):

     atom    1 type  1   force =     0.00000000    0.00000000    0.02882503
     atom    2 type  1   force =    -0.00000000   -0.00219281    0.02828864
     atom    3 type  1   force =     0.00000000    0.00219281    0.02828864
     atom    4 type  1   force =    -0.00219281    0.00000000    0.02828864
     atom    5 type  1   force =    -0.00284752   -0.00284752    0.03262509
     atom    6 type  1   force =    -0.00284752    0.00284752    0.03262509
     atom    7 type  1   force =     0.00219281   -0.00000000    0.02828864
     atom    8 type  1   force =     0.00284752   -0.00284752    0.03262509
     atom    9 type  1   force =     0.00284752    0.00284752    0.03262509
     atom   10 type  1   force =    -0.00024142   -0.00024142   -0.02864969
     atom   11 type  1   force =     0.00253109    0.00000000   -0.03306977
     atom   12 type  1   force =    -0.00024142    0.00024142   -0.02864969
     atom   13 type  1   force =     0.00000000    0.00253109   -0.03306977
     atom   14 type  1   force =     0.00000000    0.00000000   -0.02664401
     atom   15 type  1   force =    -0.00000000   -0.00253109   -0.03306977
     atom   16 type  1   force =     0.00024142   -0.00024142   -0.02864969
     atom   17 type  1   force =    -0.00253109    0.00000000   -0.03306977
     atom   18 type  1   force =     0.00024142    0.00024142   -0.02864969
     atom   19 type  1   force =     0.00000000    0.00000000   -0.00036540
     atom   20 type  1   force =    -0.00000000   -0.00011076    0.00017163
     atom   21 type  1   force =     0.00000000    0.00011076    0.00017163
     atom   22 type  1   force =    -0.00011076    0.00000000    0.00017163
     atom   23 type  1   force =     0.00013444    0.00013444   -0.00004384
     atom   24 type  1   force =     0.00013444   -0.00013444   -0.00004384
     atom   25 type  1   force =     0.00011076   -0.00000000    0.00017163
     atom   26 type  1   force =    -0.00013444    0.00013444   -0.00004384
     atom   27 type  1   force =    -0.00013444   -0.00013444   -0.00004384
     atom   28 type  1   force =     0.00013669    0.00013669   -0.00001058
     atom   29 type  1   force =    -0.00009109   -0.00000000    0.00006111
     atom   30 type  1   force =     0.00013669   -0.00013669   -0.00001058
     atom   31 type  1   force =     0.00000000   -0.00009109    0.00006111
     atom   32 type  1   force =     0.00000000    0.00000000   -0.00005082
     atom   33 type  1   force =    -0.00000000    0.00009109    0.00006111
     atom   34 type  1   force =    -0.00013669    0.00013669   -0.00001058
     atom   35 type  1   force =     0.00009109    0.00000000    0.00006111
     atom   36 type  1   force =    -0.00013669   -0.00013669   -0.00001058
     atom   37 type  2   force =     0.00000000    0.00000000    0.00074487

     Total force =     0.001099     Total SCF correction =     0.000031
     Energy error            =      4.8E-05 Ry
     Gradient error          =      7.4E-04 Ry/Bohr

     bfgs converged in  23 scf cycles and  22 bfgs steps
     (criteria: energy <  1.0E-04 Ry, force <  1.0E-03 Ry/Bohr)

     End of BFGS Geometry Optimization

     Final energy             =   -1462.6028002211 Ry

     File ./tmp/Al.bfgs deleted, as requested
Begin final coordinates

ATOMIC_POSITIONS (alat)
Al               0.0000000000        0.0000000000        0.0000000000    0   0   0
Al               0.0000000000        0.9999999969        0.0000000000    0   0   0
Al               0.0000000000        1.9999999943        0.0000000000    0   0   0
Al               0.9999999969        0.0000000000        0.0000000000    0   0   0
Al               0.9999999969        0.9999999969        0.0000000000    0   0   0
Al               0.9999999969        1.9999999943        0.0000000000    0   0   0
Al               1.9999999943        0.0000000000        0.0000000000    0   0   0
Al               1.9999999943        0.9999999969        0.0000000000    0   0   0
Al               1.9999999943        1.9999999943        0.0000000000    0   0   0
Al               0.4999999986        0.4999999986        0.7071067670    0   0   0
Al               0.4999999986        1.4999999957        0.7071067670    0   0   0
Al               0.4999999986        2.4999999927        0.7071067670    0   0   0
Al               1.4999999957        0.4999999986        0.7071067670    0   0   0
Al               1.4999999957        1.4999999957        0.7071067670    0   0   0
Al               1.4999999957        2.4999999927        0.7071067670    0   0   0
Al               2.4999999927        0.4999999986        0.7071067670    0   0   0
Al               2.4999999927        1.4999999957        0.7071067670    0   0   0
Al               2.4999999927        2.4999999927        0.7071067670    0   0   0
Al               0.0000000000        0.0000000000        1.3087012372
Al               0.0000000000        1.0093133838        1.3190522899
Al               0.0000000000        1.9906866075        1.3190522899
Al               1.0093133838        0.0000000000        1.3190522899
Al               1.0014805551        1.0014805551        1.3245016372
Al               1.0014805551        1.9985194361        1.3245016372
Al               1.9906866075       -0.0000000000        1.3190522899
Al               1.9985194361        1.0014805551        1.3245016372
Al               1.9985194361        1.9985194361        1.3245016372
Al               0.4983665402        0.4983665402        1.8981465296
Al               0.5042428089        1.4999999957        1.9372058730
Al               0.4983665402        2.5016334511        1.8981465296
Al               1.4999999957        0.5042428089        1.9372058730
Al               1.4999999957        1.4999999957        1.9107237630
Al               1.4999999957        2.4957571824        1.9372058730
Al               2.5016334511        0.4983665402        1.8981465296
Al               2.4957571824        1.4999999957        1.9372058730
Al               2.5016334511        2.5016334511        1.8981465296
O                1.4999999992        1.4999999992        2.4953709338    0   0   1
End final coordinates



     Writing all to output data dir ./tmp/Al.save/ :
     XML data file, charge density, pseudopotentials, collected wavefunctions

     init_run     :      3.30s CPU      3.66s WALL (       1 calls)
     electrons    :   2094.91s CPU   2438.85s WALL (      23 calls)
     update_pot   :     35.01s CPU     38.03s WALL (      22 calls)
     forces       :     58.40s CPU     69.58s WALL (      23 calls)

     Called by init_run:
     wfcinit      :      0.69s CPU      0.75s WALL (       1 calls)
     potinit      :      1.46s CPU      1.55s WALL (       1 calls)
     hinit0       :      0.23s CPU      0.27s WALL (       1 calls)

     Called by electrons:
     c_bands      :    557.02s CPU    617.18s WALL (     355 calls)
     sum_band     :    374.93s CPU    481.51s WALL (     355 calls)
     v_of_rho     :    111.56s CPU    130.24s WALL (     373 calls)
     newd         :    282.75s CPU    377.71s WALL (     373 calls)
     PAW_pot      :    471.87s CPU    496.57s WALL (     395 calls)
     mix_rho      :    359.80s CPU    403.45s WALL (     355 calls)

     Called by c_bands:
     init_us_2    :     16.75s CPU     18.08s WALL (     733 calls)
     regterg      :    503.18s CPU    555.02s WALL (     355 calls)

     Called by *egterg:
     rdiaghg      :     10.38s CPU     12.26s WALL (    2227 calls)
     h_psi        :    373.54s CPU    414.60s WALL (    2255 calls)
     s_psi        :     49.22s CPU     52.60s WALL (    2255 calls)
     g_psi        :      1.20s CPU      1.22s WALL (    1899 calls)

     Called by h_psi:
     h_psi:calbec :     56.70s CPU     60.93s WALL (    2255 calls)
     vloc_psi     :    265.59s CPU    298.56s WALL (    2255 calls)
     add_vuspsi   :     49.84s CPU     53.56s WALL (    2255 calls)

     General routines
     calbec       :     77.52s CPU     83.13s WALL (    2724 calls)
     fft          :     91.10s CPU    106.56s WALL (    4291 calls)
     ffts         :    199.64s CPU    227.43s WALL (   40949 calls)
     fftw         :    240.17s CPU    271.16s WALL (   84750 calls)
     interpolate  :      9.81s CPU     11.17s WALL (     373 calls)

     Parallel routines

     PWSCF        :  37m17.51s CPU  43m23.67s WALL


   This run was terminated on:  17:33:37  19May2025            

=------------------------------------------------------------------------------=
   JOB DONE.
=------------------------------------------------------------------------------=
