
     Program PWSCF v.7.3.1 starts on 19May2025 at 23: 2:40 

     This program is part of the open-source Quantum ESPRESSO suite
     for quantum simulation of materials; please cite
         "P. Giannozzi et al., J. Phys.:Condens. Matter 21 395502 (2009);
         "P. Giannozzi et al., J. Phys.:Condens. Matter 29 465901 (2017);
         "P. Giannozzi et al., J. Chem. Phys. 152 154105 (2020);
          URL http://www.quantum-espresso.org", 
     in publications or presentations arising from this work. More details at
     http://www.quantum-espresso.org/quote

     Parallel version (MPI), running on     4 processors

     MPI processes distributed on     1 nodes
     22137 MiB available memory on the printing compute node when the environment starts

     Waiting for input...
     Reading input from standard input

     Current dimensions of program PWSCF are:
     Max number of different atomic species (ntypx) = 10
     Max number of k-points (npk) =  40000
     Max angular momentum in pseudopotentials (lmaxx) =  4
     file O.pbe-n-kjpaw_psl.0.1.UPF: wavefunction(s)  2P renormalized

     gamma-point specific algorithms are used
     Message from routine setup:
     using ibrav=0 with symmetry is DISCOURAGED, use correct ibrav instead

     R & G space division:  proc/nbgrp/npool/nimage =       4
     Subspace diagonalization in iterative solution of the eigenvalue problem:
     a serial algorithm will be used


     Parallelization info
     --------------------
     sticks:   dense  smooth     PW     G-vecs:    dense   smooth      PW
     Min        2270    1134    281               163162    57594    7166
     Max        2272    1135    284               163172    57599    7170
     Sum        9085    4537   1129               652671   230389   28671

     Using Slab Decomposition



     bravais-lattice index     =            0
     lattice parameter (alat)  =      18.8973  a.u.
     unit-cell volume          =    6748.3345 (a.u.)^3
     number of atoms/cell      =            1
     number of atomic types    =            1
     number of electrons       =         6.00
     number of Kohn-Sham states=            6
     kinetic-energy cutoff     =      40.0000  Ry
     charge density cutoff     =     320.0000  Ry
     scf convergence threshold =      1.0E-07
     mixing beta               =       0.7000
     number of iterations used =            8  plain     mixing
     Exchange-correlation= SLA  PW   PBX  PBC
                           (   1   4   3   4   0   0   0)

     celldm(1)=  18.897261  celldm(2)=   0.000000  celldm(3)=   0.000000
     celldm(4)=   0.000000  celldm(5)=   0.000000  celldm(6)=   0.000000

     crystal axes: (cart. coord. in units of alat)
               a(1) = (   1.000000   0.000000   0.000000 )  
               a(2) = (   0.000000   1.000000   0.000000 )  
               a(3) = (   0.000000   0.000000   1.000000 )  

     reciprocal axes: (cart. coord. in units 2 pi/alat)
               b(1) = (  1.000000  0.000000  0.000000 )  
               b(2) = (  0.000000  1.000000  0.000000 )  
               b(3) = (  0.000000  0.000000  1.000000 )  


     PseudoPot. # 1 for O  read from file:
     ../../Pseudo/O.pbe-n-kjpaw_psl.0.1.UPF
     MD5 check sum: 0234752ac141de4415c5fc33072bef88
     Pseudo is Projector augmented-wave + core cor, Zval =  6.0
     Generated using "atomic" code by A. Dal Corso  v.5.0.99 svn rev. 10869
     Shape of augmentation charge: BESSEL
     Using radial grid of 1095 points,  4 beta functions with: 
                l(1) =   0
                l(2) =   0
                l(3) =   1
                l(4) =   1
     Q(r) pseudized with 0 coefficients 


     atomic species   valence    mass     pseudopotential
     O                 6.00     1.00000     O ( 1.00)

      6 Sym. Ops. (no inversion) found


                                    s                        frac. trans.

      isym =  1     identity                                     

 cryst.   s( 1) = (     1          0          0      )
                  (     0          1          0      )
                  (     0          0          1      )

 cart.    s( 1) = (  1.0000000  0.0000000  0.0000000 )
                  (  0.0000000  1.0000000  0.0000000 )
                  (  0.0000000  0.0000000  1.0000000 )


      isym =  2     120 deg rotation - cart. axis [-1,-1,-1]     

 cryst.   s( 2) = (     0          0          1      )
                  (     1          0          0      )
                  (     0          1          0      )

 cart.    s( 2) = (  0.0000000  1.0000000  0.0000000 )
                  (  0.0000000  0.0000000  1.0000000 )
                  (  1.0000000  0.0000000  0.0000000 )


      isym =  3     120 deg rotation - cart. axis [1,1,1]        

 cryst.   s( 3) = (     0          1          0      )
                  (     0          0          1      )
                  (     1          0          0      )

 cart.    s( 3) = (  0.0000000  0.0000000  1.0000000 )
                  (  1.0000000  0.0000000  0.0000000 )
                  (  0.0000000  1.0000000  0.0000000 )


      isym =  4     inv. 180 deg rotation - cart. axis [1,-1,0]  

 cryst.   s( 4) = (     0          1          0      )
                  (     1          0          0      )
                  (     0          0          1      )

 cart.    s( 4) = (  0.0000000  1.0000000  0.0000000 )
                  (  1.0000000  0.0000000  0.0000000 )
                  (  0.0000000  0.0000000  1.0000000 )


      isym =  5     inv. 180 deg rotation - cart. axis [-1,0,1]  

 cryst.   s( 5) = (     0          0          1      )
                  (     0          1          0      )
                  (     1          0          0      )

 cart.    s( 5) = (  0.0000000  0.0000000  1.0000000 )
                  (  0.0000000  1.0000000  0.0000000 )
                  (  1.0000000  0.0000000  0.0000000 )


      isym =  6     inv. 180 deg rotation - cart. axis [0,1,-1]  

 cryst.   s( 6) = (     1          0          0      )
                  (     0          0          1      )
                  (     0          1          0      )

 cart.    s( 6) = (  1.0000000  0.0000000  0.0000000 )
                  (  0.0000000  0.0000000  1.0000000 )
                  (  0.0000000  1.0000000  0.0000000 )


   Cartesian axes

     site n.     atom                  positions (alat units)
         1        O      tau(   1) = (   0.2000000   0.2000000   0.2000000  )

   Crystallographic axes

     site n.     atom                  positions (cryst. coord.)
         1        O      tau(   1) = (  0.2000000  0.2000000  0.2000000  )

     number of k points=     1  Gaussian smearing, width (Ry)=  0.0010
                       cart. coord. in units 2pi/alat
        k(    1) = (   0.0000000   0.0000000   0.0000000), wk =   2.0000000

                       cryst. coord.
        k(    1) = (   0.0000000   0.0000000   0.0000000), wk =   2.0000000

     Dense  grid:   326336 G-vectors     FFT dimensions: ( 108, 108, 108)

     Smooth grid:   115195 G-vectors     FFT dimensions: (  80,  80,  80)

     Dynamical RAM for                 wfc:       0.33 MB

     Dynamical RAM for     wfc (w. buffer):       0.33 MB

     Dynamical RAM for           str. fact:       1.24 MB

     Dynamical RAM for           local pot:       0.00 MB

     Dynamical RAM for          nlocal pot:       0.44 MB

     Dynamical RAM for                qrad:       0.41 MB

     Dynamical RAM for          rho,v,vnew:      10.94 MB

     Dynamical RAM for               rhoin:       3.65 MB

     Dynamical RAM for            rho*nmix:      19.92 MB

     Dynamical RAM for           G-vectors:       4.89 MB

     Dynamical RAM for          h,s,v(r/c):       0.00 MB

     Dynamical RAM for          <psi|beta>:       0.00 MB

     Dynamical RAM for                 psi:       0.66 MB

     Dynamical RAM for                hpsi:       0.66 MB

     Dynamical RAM for                spsi:       0.66 MB

     Dynamical RAM for      wfcinit/wfcrot:       0.66 MB

     Dynamical RAM for           addusdens:      54.78 MB

     Estimated static dynamical RAM per process >      36.41 MB

     Estimated max dynamical RAM per process >     111.10 MB

     Estimated total dynamical RAM >     444.40 MB

     Initial potential from superposition of free atoms

     starting charge       6.0000, renormalised to       6.0000

     negative rho (up, down):  1.517E-03 0.000E+00
     Starting wfcs are    4 randomized atomic wfcs +    2 random wfcs
     Checking if some PAW data can be deallocated... 

     total cpu time spent up to now is        0.8 secs

     Self-consistent Calculation

     iteration #  1     ecut=    40.00 Ry     beta= 0.70
     Davidson diagonalization with overlap

---- Real-time Memory Report at c_bands before calling an iterative solver
           110 MiB given to the printing process from OS
             0 MiB allocation reported by mallinfo(arena+hblkhd)
         21982 MiB available memory on the node where the printing process lives
------------------
     ethr =  1.00E-02,  avg # of iterations =  5.0

     Threshold (ethr) on eigenvalues was too large:
     Diagonalizing with lowered threshold

     Davidson diagonalization with overlap

---- Real-time Memory Report at c_bands before calling an iterative solver
           116 MiB given to the printing process from OS
             0 MiB allocation reported by mallinfo(arena+hblkhd)
         21936 MiB available memory on the node where the printing process lives
------------------
     ethr =  3.09E-05,  avg # of iterations = 13.0

     negative rho (up, down):  1.373E-03 0.000E+00

     total cpu time spent up to now is        1.7 secs

     total energy              =     -41.15337965 Ry
     estimated scf accuracy    <       0.00185520 Ry

     iteration #  2     ecut=    40.00 Ry     beta= 0.70
     Davidson diagonalization with overlap

---- Real-time Memory Report at c_bands before calling an iterative solver
           125 MiB given to the printing process from OS
             0 MiB allocation reported by mallinfo(arena+hblkhd)
         21898 MiB available memory on the node where the printing process lives
------------------
     ethr =  3.09E-05,  avg # of iterations =  1.0

     negative rho (up, down):  2.838E-03 0.000E+00

     total cpu time spent up to now is        2.5 secs

     total energy              =     -41.15462155 Ry
     estimated scf accuracy    <       0.06243406 Ry

     iteration #  3     ecut=    40.00 Ry     beta= 0.70
     Davidson diagonalization with overlap

---- Real-time Memory Report at c_bands before calling an iterative solver
           126 MiB given to the printing process from OS
             0 MiB allocation reported by mallinfo(arena+hblkhd)
         21894 MiB available memory on the node where the printing process lives
------------------
     ethr =  3.09E-05,  avg # of iterations =  1.0

     negative rho (up, down):  3.460E-03 0.000E+00

     total cpu time spent up to now is        2.9 secs

     total energy              =     -41.15460056 Ry
     estimated scf accuracy    <       0.04148227 Ry

     iteration #  4     ecut=    40.00 Ry     beta= 0.70
     Davidson diagonalization with overlap

---- Real-time Memory Report at c_bands before calling an iterative solver
           127 MiB given to the printing process from OS
             0 MiB allocation reported by mallinfo(arena+hblkhd)
         21891 MiB available memory on the node where the printing process lives
------------------
     ethr =  3.09E-05,  avg # of iterations =  1.0

     negative rho (up, down):  2.611E-03 0.000E+00

     total cpu time spent up to now is        3.3 secs

     total energy              =     -41.14572784 Ry
     estimated scf accuracy    <       0.03708850 Ry

     iteration #  5     ecut=    40.00 Ry     beta= 0.70
     Davidson diagonalization with overlap

---- Real-time Memory Report at c_bands before calling an iterative solver
           128 MiB given to the printing process from OS
             0 MiB allocation reported by mallinfo(arena+hblkhd)
         21887 MiB available memory on the node where the printing process lives
------------------
     ethr =  3.09E-05,  avg # of iterations =  2.0

     negative rho (up, down):  5.150E-03 0.000E+00

     total cpu time spent up to now is        3.8 secs

     total energy              =     -41.16765646 Ry
     estimated scf accuracy    <       0.24132711 Ry

     iteration #  6     ecut=    40.00 Ry     beta= 0.70
     Davidson diagonalization with overlap

---- Real-time Memory Report at c_bands before calling an iterative solver
           129 MiB given to the printing process from OS
             0 MiB allocation reported by mallinfo(arena+hblkhd)
         21883 MiB available memory on the node where the printing process lives
------------------
     ethr =  3.09E-05,  avg # of iterations =  1.0

     negative rho (up, down):  7.173E-03 0.000E+00

     total cpu time spent up to now is        4.7 secs

     total energy              =     -41.15836486 Ry
     estimated scf accuracy    <       0.22244926 Ry

     iteration #  7     ecut=    40.00 Ry     beta= 0.70
     Davidson diagonalization with overlap

---- Real-time Memory Report at c_bands before calling an iterative solver
           130 MiB given to the printing process from OS
             0 MiB allocation reported by mallinfo(arena+hblkhd)
         21880 MiB available memory on the node where the printing process lives
------------------
     ethr =  3.09E-05,  avg # of iterations =  1.0

     negative rho (up, down):  7.521E-03 0.000E+00

     total cpu time spent up to now is        5.4 secs

     total energy              =     -41.15012219 Ry
     estimated scf accuracy    <       0.20008313 Ry

     iteration #  8     ecut=    40.00 Ry     beta= 0.70
     Davidson diagonalization with overlap

---- Real-time Memory Report at c_bands before calling an iterative solver
           130 MiB given to the printing process from OS
             0 MiB allocation reported by mallinfo(arena+hblkhd)
         21877 MiB available memory on the node where the printing process lives
------------------
     ethr =  3.09E-05,  avg # of iterations =  1.0

     negative rho (up, down):  1.355E-03 0.000E+00

     total cpu time spent up to now is        5.8 secs

     total energy              =     -41.15336837 Ry
     estimated scf accuracy    <       0.04921005 Ry

     iteration #  9     ecut=    40.00 Ry     beta= 0.70
     Davidson diagonalization with overlap

---- Real-time Memory Report at c_bands before calling an iterative solver
           132 MiB given to the printing process from OS
             0 MiB allocation reported by mallinfo(arena+hblkhd)
         21871 MiB available memory on the node where the printing process lives
------------------
     ethr =  3.09E-05,  avg # of iterations =  1.0

     negative rho (up, down):  2.023E-03 0.000E+00

     total cpu time spent up to now is        6.6 secs

     total energy              =     -41.15428272 Ry
     estimated scf accuracy    <       0.02037494 Ry

     iteration # 10     ecut=    40.00 Ry     beta= 0.70
     Davidson diagonalization with overlap

---- Real-time Memory Report at c_bands before calling an iterative solver
           132 MiB given to the printing process from OS
             0 MiB allocation reported by mallinfo(arena+hblkhd)
         21868 MiB available memory on the node where the printing process lives
------------------
     ethr =  3.09E-05,  avg # of iterations =  1.0

     negative rho (up, down):  2.242E-03 0.000E+00

     total cpu time spent up to now is        7.4 secs

     total energy              =     -41.15386737 Ry
     estimated scf accuracy    <       0.01445888 Ry

     iteration # 11     ecut=    40.00 Ry     beta= 0.70
     Davidson diagonalization with overlap

---- Real-time Memory Report at c_bands before calling an iterative solver
           132 MiB given to the printing process from OS
             0 MiB allocation reported by mallinfo(arena+hblkhd)
         21867 MiB available memory on the node where the printing process lives
------------------
     ethr =  3.09E-05,  avg # of iterations =  1.0

     negative rho (up, down):  1.581E-03 0.000E+00

     total cpu time spent up to now is        7.8 secs

     total energy              =     -41.15400021 Ry
     estimated scf accuracy    <       0.01649973 Ry

     iteration # 12     ecut=    40.00 Ry     beta= 0.70
     Davidson diagonalization with overlap

---- Real-time Memory Report at c_bands before calling an iterative solver
           132 MiB given to the printing process from OS
             0 MiB allocation reported by mallinfo(arena+hblkhd)
         21867 MiB available memory on the node where the printing process lives
------------------
     ethr =  3.09E-05,  avg # of iterations =  1.0

     negative rho (up, down):  1.318E-03 0.000E+00

     total cpu time spent up to now is        8.4 secs

     total energy              =     -41.15425998 Ry
     estimated scf accuracy    <       0.00150679 Ry

     iteration # 13     ecut=    40.00 Ry     beta= 0.70
     Davidson diagonalization with overlap

---- Real-time Memory Report at c_bands before calling an iterative solver
           132 MiB given to the printing process from OS
             0 MiB allocation reported by mallinfo(arena+hblkhd)
         21867 MiB available memory on the node where the printing process lives
------------------
     ethr =  2.51E-05,  avg # of iterations =  1.0

     negative rho (up, down):  2.450E-03 0.000E+00

     total cpu time spent up to now is        9.2 secs

     total energy              =     -41.15451255 Ry
     estimated scf accuracy    <       0.02824495 Ry

     iteration # 14     ecut=    40.00 Ry     beta= 0.70
     Davidson diagonalization with overlap

---- Real-time Memory Report at c_bands before calling an iterative solver
           132 MiB given to the printing process from OS
             0 MiB allocation reported by mallinfo(arena+hblkhd)
         21864 MiB available memory on the node where the printing process lives
------------------
     ethr =  2.51E-05,  avg # of iterations =  1.0

     negative rho (up, down):  3.490E-03 0.000E+00

     total cpu time spent up to now is       10.2 secs

     total energy              =     -41.15422868 Ry
     estimated scf accuracy    <       0.04727934 Ry

     iteration # 15     ecut=    40.00 Ry     beta= 0.70
     Davidson diagonalization with overlap

---- Real-time Memory Report at c_bands before calling an iterative solver
           132 MiB given to the printing process from OS
             0 MiB allocation reported by mallinfo(arena+hblkhd)
         21866 MiB available memory on the node where the printing process lives
------------------
     ethr =  2.51E-05,  avg # of iterations =  1.0

     negative rho (up, down):  2.670E-03 0.000E+00

     total cpu time spent up to now is       10.7 secs

     total energy              =     -41.15415361 Ry
     estimated scf accuracy    <       0.01369339 Ry

     iteration # 16     ecut=    40.00 Ry     beta= 0.70
     Davidson diagonalization with overlap

---- Real-time Memory Report at c_bands before calling an iterative solver
           132 MiB given to the printing process from OS
             0 MiB allocation reported by mallinfo(arena+hblkhd)
         21865 MiB available memory on the node where the printing process lives
------------------
     ethr =  2.51E-05,  avg # of iterations =  1.0

     negative rho (up, down):  1.632E-03 0.000E+00

     total cpu time spent up to now is       11.3 secs

     total energy              =     -41.15417162 Ry
     estimated scf accuracy    <       0.00075383 Ry

     iteration # 17     ecut=    40.00 Ry     beta= 0.70
     Davidson diagonalization with overlap

---- Real-time Memory Report at c_bands before calling an iterative solver
           132 MiB given to the printing process from OS
             0 MiB allocation reported by mallinfo(arena+hblkhd)
         21865 MiB available memory on the node where the printing process lives
------------------
     ethr =  1.26E-05,  avg # of iterations =  1.0

     negative rho (up, down):  1.305E-03 0.000E+00

     total cpu time spent up to now is       11.7 secs

     total energy              =     -41.15418036 Ry
     estimated scf accuracy    <       0.00025669 Ry

     iteration # 18     ecut=    40.00 Ry     beta= 0.70
     Davidson diagonalization with overlap

---- Real-time Memory Report at c_bands before calling an iterative solver
           132 MiB given to the printing process from OS
             0 MiB allocation reported by mallinfo(arena+hblkhd)
         21865 MiB available memory on the node where the printing process lives
------------------
     ethr =  4.28E-06,  avg # of iterations =  8.0

     negative rho (up, down):  1.301E-03 0.000E+00

     total cpu time spent up to now is       12.2 secs

     total energy              =     -41.15418186 Ry
     estimated scf accuracy    <       0.00000638 Ry

     iteration # 19     ecut=    40.00 Ry     beta= 0.70
     Davidson diagonalization with overlap

---- Real-time Memory Report at c_bands before calling an iterative solver
           132 MiB given to the printing process from OS
             0 MiB allocation reported by mallinfo(arena+hblkhd)
         21865 MiB available memory on the node where the printing process lives
------------------
     ethr =  1.06E-07,  avg # of iterations =  1.0

     negative rho (up, down):  1.303E-03 0.000E+00

     total cpu time spent up to now is       12.6 secs

     total energy              =     -41.15418188 Ry
     estimated scf accuracy    <       0.00000489 Ry

     iteration # 20     ecut=    40.00 Ry     beta= 0.70
     Davidson diagonalization with overlap

---- Real-time Memory Report at c_bands before calling an iterative solver
           132 MiB given to the printing process from OS
             0 MiB allocation reported by mallinfo(arena+hblkhd)
         21865 MiB available memory on the node where the printing process lives
------------------
     ethr =  8.15E-08,  avg # of iterations =  1.0

     negative rho (up, down):  1.301E-03 0.000E+00

     total cpu time spent up to now is       13.1 secs

     total energy              =     -41.15418180 Ry
     estimated scf accuracy    <       0.00000162 Ry

     iteration # 21     ecut=    40.00 Ry     beta= 0.70
     Davidson diagonalization with overlap

---- Real-time Memory Report at c_bands before calling an iterative solver
           132 MiB given to the printing process from OS
             0 MiB allocation reported by mallinfo(arena+hblkhd)
         21865 MiB available memory on the node where the printing process lives
------------------
     ethr =  2.71E-08,  avg # of iterations =  1.0

     negative rho (up, down):  1.302E-03 0.000E+00

     total cpu time spent up to now is       13.7 secs

     total energy              =     -41.15418185 Ry
     estimated scf accuracy    <       0.00000013 Ry

     iteration # 22     ecut=    40.00 Ry     beta= 0.70
     Davidson diagonalization with overlap

---- Real-time Memory Report at c_bands before calling an iterative solver
           132 MiB given to the printing process from OS
             0 MiB allocation reported by mallinfo(arena+hblkhd)
         21865 MiB available memory on the node where the printing process lives
------------------
     ethr =  2.09E-09,  avg # of iterations =  1.0

     negative rho (up, down):  1.303E-03 0.000E+00

     total cpu time spent up to now is       14.2 secs

     End of self-consistent calculation

          k = 0.0000 0.0000 0.0000 ( 14336 PWs)   bands (ev):

   -23.8740  -8.9307  -8.9307  -8.9307  -0.3559   1.0180

     occupation numbers 
     1.0000   0.6669   0.6666   0.6665   0.0000   0.0000

     the Fermi energy is    -8.9266 ev

!    total energy              =     -41.15418186 Ry
     total all-electron energy =      -150.001074 Ry
     estimated scf accuracy    <       0.00000002 Ry
     smearing contrib. (-TS)   =      -0.00154262 Ry
     internal energy E=F+TS    =     -41.15263924 Ry

     The total energy is F=E-TS. E is the sum of the following terms:
     one-electron contribution =     -41.18760103 Ry
     hartree contribution      =      21.90116087 Ry
     xc contribution           =      -6.89870970 Ry
     ewald contribution        =      -5.40515940 Ry
     one-center paw contrib.   =      -9.56232998 Ry
      -> PAW hartree energy AE =      21.78587457 Ry
      -> PAW hartree energy PS =     -21.69834697 Ry
      -> PAW xc energy AE      =     -15.99687106 Ry
      -> PAW xc energy PS      =       6.34701348 Ry
      -> total E_H with PAW    =      21.98868848 Ry
      -> total E_XC with PAW   =     -16.54856729 Ry

     convergence has been achieved in  22 iterations

     Writing all to output data dir ./tmp/O.save/ :
     XML data file, charge density, pseudopotentials, collected wavefunctions

     init_run     :      0.51s CPU      0.64s WALL (       1 calls)
     electrons    :     11.19s CPU     13.52s WALL (       1 calls)

     Called by init_run:
     wfcinit      :      0.01s CPU      0.01s WALL (       1 calls)
     wfcinit:atom :      0.00s CPU      0.00s WALL (       1 calls)
     wfcinit:wfcr :      0.01s CPU      0.01s WALL (       1 calls)
     potinit      :      0.15s CPU      0.22s WALL (       1 calls)
     hinit0       :      0.14s CPU      0.17s WALL (       1 calls)

     Called by electrons:
     c_bands      :      0.79s CPU      0.83s WALL (      23 calls)
     sum_band     :      2.63s CPU      3.36s WALL (      23 calls)
     v_of_rho     :      4.22s CPU      5.03s WALL (      23 calls)
     v_h          :      0.48s CPU      0.58s WALL (      23 calls)
     v_xc         :      3.74s CPU      4.45s WALL (      23 calls)
     newd         :      1.83s CPU      2.42s WALL (      23 calls)
     PAW_pot      :      0.32s CPU      0.36s WALL (      23 calls)
     mix_rho      :      1.00s CPU      1.08s WALL (      23 calls)

     Called by c_bands:
     init_us_2    :      0.03s CPU      0.03s WALL (      47 calls)
     regterg      :      0.76s CPU      0.80s WALL (      23 calls)

     Called by sum_band:
     sum_band:wei :      0.00s CPU      0.00s WALL (      23 calls)
     sum_band:loo :      0.22s CPU      0.23s WALL (      23 calls)
     sum_band:buf :      0.00s CPU      0.00s WALL (      23 calls)
     sum_band:ini :      0.01s CPU      0.02s WALL (      23 calls)
     sum_band:cal :      0.01s CPU      0.01s WALL (      23 calls)
     sum_band:bec :      0.00s CPU      0.00s WALL (      23 calls)
     addusdens    :      1.88s CPU      2.55s WALL (      23 calls)
                                        0.00s GPU  (      23 calls)
     addusd:skk   :      0.01s CPU      0.01s WALL (      23 calls)
                                        0.00s GPU  (      23 calls)

     Called by *egterg:
     rdiaghg      :      0.01s CPU      0.01s WALL (      69 calls)
     regterg:over :      0.01s CPU      0.01s WALL (      47 calls)
     regterg:upda :      0.01s CPU      0.01s WALL (      47 calls)
     regterg:last :      0.01s CPU      0.01s WALL (      31 calls)
     h_psi        :      0.71s CPU      0.75s WALL (      71 calls)
     s_psi        :      0.00s CPU      0.00s WALL (      71 calls)
     g_psi        :      0.00s CPU      0.00s WALL (      47 calls)

     Called by h_psi:
     h_psi:calbec :      0.01s CPU      0.01s WALL (      71 calls)
     vloc_psi     :      0.68s CPU      0.72s WALL (      71 calls)
     add_vuspsi   :      0.01s CPU      0.01s WALL (      71 calls)

     General routines
     calbec       :      0.02s CPU      0.02s WALL (      94 calls)
     fft          :      3.24s CPU      3.77s WALL (     252 calls)
     ffts         :      0.15s CPU      0.18s WALL (      46 calls)
     fftw         :      0.56s CPU      0.59s WALL (     399 calls)
     interpolate  :      0.40s CPU      0.46s WALL (      23 calls)

     Parallel routines

     PAW routines
     PAW_pot      :      0.32s CPU      0.36s WALL (      23 calls)
     PAW_symme    :      0.00s CPU      0.00s WALL (      46 calls)

     PWSCF        :     11.81s CPU     14.42s WALL


   This run was terminated on:  23: 2:55  19May2025            

=------------------------------------------------------------------------------=
   JOB DONE.
=------------------------------------------------------------------------------=
