
     Program PWSCF v.6.7MaX starts on 30Apr2026 at 19:45:17 

     This program is part of the open-source Quantum ESPRESSO suite
     for quantum simulation of materials; please cite
         "P. Giannozzi et al., J. Phys.:Condens. Matter 21 395502 (2009);
         "P. Giannozzi et al., J. Phys.:Condens. Matter 29 465901 (2017);
          URL http://www.quantum-espresso.org", 
     in publications or presentations arising from this work. More details at
     http://www.quantum-espresso.org/quote

     Parallel version (MPI & OpenMP), running on       4 processor cores
     Number of MPI processes:                 4
     Threads/MPI process:                     1

     MPI processes distributed on     1 nodes
     R & G space division:  proc/nbgrp/npool/nimage =       4
     Waiting for input...
     Reading input from standard input

     Current dimensions of program PWSCF are:
     Max number of different atomic species (ntypx) = 10
     Max number of k-points (npk) =  40000
     Max angular momentum in pseudopotentials (lmaxx) =  3
     Message from routine read_pp_mesh:
     mesh size missing, using the one in header

     Subspace diagonalization in iterative solution of the eigenvalue problem:
     a serial algorithm will be used


     Parallelization info
     --------------------
     sticks:   dense  smooth     PW     G-vecs:    dense   smooth      PW
     Min         253     253     73                23470    23470    3589
     Max         254     254     75                23476    23476    3592
     Sum        1015    1015    295                93889    93889   14361



     bravais-lattice index     =            4
     lattice parameter (alat)  =       7.8029  a.u.
     unit-cell volume          =    1494.6221 (a.u.)^3
     number of atoms/cell      =            2
     number of atomic types    =            1
     number of electrons       =        30.00
     number of Kohn-Sham states=           20
     kinetic-energy cutoff     =      60.0000  Ry
     charge density cutoff     =     240.0000  Ry
     scf convergence threshold =      1.0E-06
     mixing beta               =       0.7000
     number of iterations used =            8  plain     mixing
     energy convergence thresh.=      1.0E-04
     force convergence thresh. =      1.0E-03
     press convergence thresh. =      1.0E-03
     Exchange-correlation= PBE
                           (   1   4   3   4   0   0   0)
     nstep                     =           50


     celldm(1)=   7.802887  celldm(2)=   0.000000  celldm(3)=   3.632744
     celldm(4)=   0.000000  celldm(5)=   0.000000  celldm(6)=   0.000000

     crystal axes: (cart. coord. in units of alat)
               a(1) = (   1.000000   0.000000   0.000000 )  
               a(2) = (  -0.500000   0.866025   0.000000 )  
               a(3) = (   0.000000   0.000000   3.632744 )  

     reciprocal axes: (cart. coord. in units 2 pi/alat)
               b(1) = (  1.000000  0.577350 -0.000000 )  
               b(2) = (  0.000000  1.154701  0.000000 )  
               b(3) = (  0.000000 -0.000000  0.275274 )  


     PseudoPot. # 1 for Sb read from file:
     /Users/cdhogan/Research/Codes/espresso/PSEUDO/SG15-1.2/Sb_ONCV_PBE-1.2.upf
     MD5 check sum: 0417cd6c0fe8ce4611e2b23135f1abd9
     Pseudo is Norm-conserving, Zval = 15.0
     Generated using ONCVPSP code by D. R. Hamann
     Using radial grid of  602 points,  6 beta functions with: 
                l(1) =   0
                l(2) =   0
                l(3) =   1
                l(4) =   1
                l(5) =   2
                l(6) =   2

     atomic species   valence    mass     pseudopotential
        Sb            15.00    12.01100     Sb( 1.00)

      6 Sym. Ops. (no inversion) found


                                    s                        frac. trans.

      isym =  1     identity                                     

 cryst.   s( 1) = (     1          0          0      )
                  (     0          1          0      )
                  (     0          0          1      )

 cart.    s( 1) = (  1.0000000  0.0000000  0.0000000 )
                  (  0.0000000  1.0000000  0.0000000 )
                  (  0.0000000  0.0000000  1.0000000 )


      isym =  2     120 deg rotation - cryst. axis [0,0,1]       

 cryst.   s( 2) = (     0          1          0      )
                  (    -1         -1          0      )
                  (     0          0          1      )

 cart.    s( 2) = ( -0.5000000 -0.8660254  0.0000000 )
                  (  0.8660254 -0.5000000  0.0000000 )
                  (  0.0000000  0.0000000  1.0000000 )


      isym =  3     120 deg rotation - cryst. axis [0,0,-1]      

 cryst.   s( 3) = (    -1         -1          0      )
                  (     1          0          0      )
                  (     0          0          1      )

 cart.    s( 3) = ( -0.5000000  0.8660254  0.0000000 )
                  ( -0.8660254 -0.5000000  0.0000000 )
                  (  0.0000000  0.0000000  1.0000000 )


      isym =  4     inv. 180 deg rotation - cart. axis [1,0,0]   

 cryst.   s( 4) = (    -1          0          0      )
                  (     1          1          0      )
                  (     0          0          1      )

 cart.    s( 4) = ( -1.0000000  0.0000000  0.0000000 )
                  (  0.0000000  1.0000000  0.0000000 )
                  (  0.0000000  0.0000000  1.0000000 )


      isym =  5     inv. 180 deg rotation - cryst. axis [0,1,0]  

 cryst.   s( 5) = (     1          1          0      )
                  (     0         -1          0      )
                  (     0          0          1      )

 cart.    s( 5) = (  0.5000000  0.8660254  0.0000000 )
                  (  0.8660254 -0.5000000  0.0000000 )
                  (  0.0000000  0.0000000  1.0000000 )


      isym =  6     inv. 180 deg rotation - cryst. axis [1,1,0]  

 cryst.   s( 6) = (     0         -1          0      )
                  (    -1          0          0      )
                  (     0          0          1      )

 cart.    s( 6) = (  0.5000000 -0.8660254  0.0000000 )
                  ( -0.8660254 -0.5000000  0.0000000 )
                  (  0.0000000  0.0000000  1.0000000 )


     point group C_3v (3m)  
     there are  3 classes
     the character table:

       E     2C3   3s_v 
A_1    1.00  1.00  1.00
A_2    1.00  1.00 -1.00
E      2.00 -1.00  0.00

     the symmetry operations in each class and the name of the first element:

     E        1
          identity                                               
     2C3      2    3
          120 deg rotation - cryst. axis [0,0,1]                 
     3s_v     4    5    6
          inv. 180 deg rotation - cart. axis [1,0,0]             

   Cartesian axes

     site n.     atom                  positions (alat units)
         1           Sb  tau(   1) = (   0.0000000   0.0000000   1.8163721  )
         2           Sb  tau(   2) = (  -0.0000000   0.5773503   2.2122067  )

   Crystallographic axes

     site n.     atom                  positions (cryst. coord.)
         1           Sb  tau(   1) = (  0.0000000  0.0000000  0.5000000  )
         2           Sb  tau(   2) = (  0.3333333  0.6666667  0.6089630  )

     number of k points=    12
                       cart. coord. in units 2pi/alat
        k(    1) = (   0.0000000   0.0000000   0.0000000), wk =   0.0246914
        k(    2) = (   0.0000000   0.1283001   0.0000000), wk =   0.1481481
        k(    3) = (   0.0000000   0.2566001   0.0000000), wk =   0.1481481
        k(    4) = (   0.0000000   0.3849002   0.0000000), wk =   0.1481481
        k(    5) = (   0.0000000   0.5132002   0.0000000), wk =   0.1481481
        k(    6) = (   0.1111111   0.1924501   0.0000000), wk =   0.1481481
        k(    7) = (   0.1111111   0.3207501   0.0000000), wk =   0.2962963
        k(    8) = (   0.1111111   0.4490502   0.0000000), wk =   0.2962963
        k(    9) = (   0.1111111   0.5773503   0.0000000), wk =   0.1481481
        k(   10) = (   0.2222222   0.3849002   0.0000000), wk =   0.1481481
        k(   11) = (   0.2222222   0.5132002   0.0000000), wk =   0.2962963
        k(   12) = (   0.3333333   0.5773503   0.0000000), wk =   0.0493827

                       cryst. coord.
        k(    1) = (   0.0000000   0.0000000   0.0000000), wk =   0.0246914
        k(    2) = (   0.0000000   0.1111111   0.0000000), wk =   0.1481481
        k(    3) = (   0.0000000   0.2222222   0.0000000), wk =   0.1481481
        k(    4) = (   0.0000000   0.3333333   0.0000000), wk =   0.1481481
        k(    5) = (   0.0000000   0.4444444   0.0000000), wk =   0.1481481
        k(    6) = (   0.1111111   0.1111111   0.0000000), wk =   0.1481481
        k(    7) = (   0.1111111   0.2222222   0.0000000), wk =   0.2962963
        k(    8) = (   0.1111111   0.3333333   0.0000000), wk =   0.2962963
        k(    9) = (   0.1111111   0.4444444   0.0000000), wk =   0.1481481
        k(   10) = (   0.2222222   0.2222222   0.0000000), wk =   0.1481481
        k(   11) = (   0.2222222   0.3333333   0.0000000), wk =   0.2962963
        k(   12) = (   0.3333333   0.3333333   0.0000000), wk =   0.0493827

     Dense  grid:    93889 G-vectors     FFT dimensions: (  40,  40, 144)

     Dynamical RAM for                 wfc:       0.89 MB

     Dynamical RAM for     wfc (w. buffer):      11.63 MB

     Dynamical RAM for           str. fact:       0.36 MB

     Dynamical RAM for           local pot:       0.00 MB

     Dynamical RAM for          nlocal pot:       1.61 MB

     Dynamical RAM for                qrad:       2.49 MB

     Dynamical RAM for          rho,v,vnew:       2.39 MB

     Dynamical RAM for               rhoin:       0.80 MB

     Dynamical RAM for            rho*nmix:       5.73 MB

     Dynamical RAM for           G-vectors:       1.52 MB

     Dynamical RAM for          h,s,v(r/c):       0.07 MB

     Dynamical RAM for          <psi|beta>:       0.01 MB

     Dynamical RAM for                 psi:       1.79 MB

     Dynamical RAM for                hpsi:       1.79 MB

     Dynamical RAM for      wfcinit/wfcrot:       1.80 MB

     Estimated static dynamical RAM per process >      29.45 MB

     Estimated max dynamical RAM per process >      33.11 MB

     Estimated total dynamical RAM >     132.44 MB

     Initial potential from superposition of free atoms

     starting charge   29.88029, renormalised to   30.00000

     negative rho (up, down):  4.884E-04 0.000E+00
     Starting wfcs are random

     total cpu time spent up to now is        0.5 secs

     Self-consistent Calculation

     iteration #  1     ecut=    60.00 Ry     beta= 0.70
     Davidson diagonalization with overlap
     ethr =  1.00E-02,  avg # of iterations = 10.2

     Threshold (ethr) on eigenvalues was too large:
     Diagonalizing with lowered threshold

     Davidson diagonalization with overlap
     ethr =  1.13E-04,  avg # of iterations =  5.7

     negative rho (up, down):  7.940E-06 0.000E+00

     total cpu time spent up to now is        4.2 secs

     total energy              =    -282.12211456 Ry
     estimated scf accuracy    <       0.02084870 Ry

     iteration #  2     ecut=    60.00 Ry     beta= 0.70
     Davidson diagonalization with overlap
     ethr =  6.95E-05,  avg # of iterations =  2.8

     negative rho (up, down):  1.199E-06 0.000E+00

     total cpu time spent up to now is        5.2 secs

     total energy              =    -282.12497699 Ry
     estimated scf accuracy    <       0.00414247 Ry

     iteration #  3     ecut=    60.00 Ry     beta= 0.70
     Davidson diagonalization with overlap
     ethr =  1.38E-05,  avg # of iterations =  4.2

     total cpu time spent up to now is        6.2 secs

     total energy              =    -282.12612711 Ry
     estimated scf accuracy    <       0.00076804 Ry

     iteration #  4     ecut=    60.00 Ry     beta= 0.70
     Davidson diagonalization with overlap
     ethr =  2.56E-06,  avg # of iterations =  5.3

     total cpu time spent up to now is        7.3 secs

     total energy              =    -282.12623563 Ry
     estimated scf accuracy    <       0.00005650 Ry

     iteration #  5     ecut=    60.00 Ry     beta= 0.70
     Davidson diagonalization with overlap
     ethr =  1.88E-07,  avg # of iterations =  4.5

     total cpu time spent up to now is        8.2 secs

     total energy              =    -282.12622142 Ry
     estimated scf accuracy    <       0.00039338 Ry

     iteration #  6     ecut=    60.00 Ry     beta= 0.70
     Davidson diagonalization with overlap
     ethr =  1.88E-07,  avg # of iterations =  2.0

     total cpu time spent up to now is        9.0 secs

     End of self-consistent calculation

          k = 0.0000 0.0000 0.0000 ( 11745 PWs)   bands (ev):

   -28.9582 -28.9582 -28.8870 -28.8870 -28.8226 -28.7759 -28.7759 -28.7237
   -28.6932 -28.6932 -11.6039  -6.6204  -0.9109  -0.3661  -0.3661   1.1856
     2.4229   2.4229   4.1249   4.1263

     occupation numbers 
     1.0000   1.0000   1.0000   1.0000   1.0000   1.0000   1.0000   1.0000
     1.0000   1.0000   1.0000   1.0000   1.0000   1.0000   1.0000   0.0000
     0.0000   0.0000   0.0000   0.0000

          k = 0.0000 0.1283 0.0000 ( 11769 PWs)   bands (ev):

   -28.9575 -28.9521 -28.8859 -28.8829 -28.8214 -28.7788 -28.7757 -28.7257
   -28.7000 -28.6935 -11.4736  -6.6247  -1.4398  -0.8600  -0.6442   1.7025
     2.4635   2.6855   4.2638   4.3081

     occupation numbers 
     1.0000   1.0000   1.0000   1.0000   1.0000   1.0000   1.0000   1.0000
     1.0000   1.0000   1.0000   1.0000   1.0000   1.0000   1.0000   0.0000
     0.0000   0.0000   0.0000   0.0000

          k = 0.0000 0.2566 0.0000 ( 11741 PWs)   bands (ev):

   -28.9556 -28.9354 -28.8824 -28.8716 -28.8180 -28.7872 -28.7755 -28.7334
   -28.7169 -28.6943 -11.0913  -6.7473  -2.7085  -1.1713  -0.8256   1.1166
     3.0636   3.1184   4.5582   4.7454

     occupation numbers 
     1.0000   1.0000   1.0000   1.0000   1.0000   1.0000   1.0000   1.0000
     1.0000   1.0000   1.0000   1.0000   1.0000   1.0000   1.0000   0.0000
     0.0000   0.0000   0.0000   0.0000

          k = 0.0000 0.3849 0.0000 ( 11722 PWs)   bands (ev):

   -28.9534 -28.9144 -28.8737 -28.8552 -28.8142 -28.8004 -28.7765 -28.7539
   -28.7295 -28.6954 -10.4941  -7.2412  -3.3100  -1.6196  -1.1519   0.9409
     2.7252   3.1934   5.0668   5.1975

     occupation numbers 
     1.0000   1.0000   1.0000   1.0000   1.0000   1.0000   1.0000   1.0000
     1.0000   1.0000   1.0000   1.0000   1.0000   1.0000   1.0000   0.0000
     0.0000   0.0000   0.0000   0.0000

          k = 0.0000 0.5132 0.0000 ( 11696 PWs)   bands (ev):

   -28.9518 -28.9027 -28.8529 -28.8368 -28.8207 -28.8167 -28.7792 -28.7724
   -28.7349 -28.6961  -9.8427  -7.9631  -3.2875  -1.8639  -1.6745   1.2078
     2.2067   3.1837   4.8340   6.1151

     occupation numbers 
     1.0000   1.0000   1.0000   1.0000   1.0000   1.0000   1.0000   1.0000
     1.0000   1.0000   1.0000   1.0000   1.0000   1.0000   1.0000   0.0000
     0.0000   0.0000   0.0000   0.0000

          k = 0.1111 0.1925 0.0000 ( 11733 PWs)   bands (ev):

   -28.9563 -28.9404 -28.8834 -28.8755 -28.8190 -28.7849 -28.7750 -28.7304
   -28.7120 -28.6941 -11.2170  -6.6857  -2.3259  -1.2959  -0.7930   1.8805
     2.2744   3.3009   4.5245   4.5835

     occupation numbers 
     1.0000   1.0000   1.0000   1.0000   1.0000   1.0000   1.0000   1.0000
     1.0000   1.0000   1.0000   1.0000   1.0000   1.0000   1.0000   0.0000
     0.0000   0.0000   0.0000   0.0000

          k = 0.1111 0.3208 0.0000 ( 11734 PWs)   bands (ev):

   -28.9545 -28.9200 -28.8783 -28.8624 -28.8145 -28.7968 -28.7740 -28.7452
   -28.7269 -28.6953 -10.7225  -6.9976  -3.0517  -2.0153  -0.8777   1.5065
     2.6741   3.2210   4.9129   5.0819

     occupation numbers 
     1.0000   1.0000   1.0000   1.0000   1.0000   1.0000   1.0000   1.0000
     1.0000   1.0000   1.0000   1.0000   1.0000   1.0000   1.0000   0.0000
     0.0000   0.0000   0.0000   0.0000

          k = 0.1111 0.4491 0.0000 ( 11726 PWs)   bands (ev):

   -28.9528 -28.9012 -28.8652 -28.8453 -28.8154 -28.8101 -28.7754 -28.7678
   -28.7351 -28.6964 -10.0599  -7.6680  -3.2872  -2.3355  -1.3414   1.5524
     2.4963   2.9524   5.1719   5.7604

     occupation numbers 
     1.0000   1.0000   1.0000   1.0000   1.0000   1.0000   1.0000   1.0000
     1.0000   1.0000   1.0000   1.0000   1.0000   1.0000   1.0000   0.0000
     0.0000   0.0000   0.0000   0.0000

          k = 0.1111 0.5774 0.0000 ( 11688 PWs)   bands (ev):

   -28.9520 -28.8956 -28.8437 -28.8382 -28.8251 -28.8196 -28.7830 -28.7713
   -28.7382 -28.6969  -9.6007  -8.1731  -3.3007  -2.2548  -1.7686   1.9490
     1.9811   2.9677   4.9371   6.8068

     occupation numbers 
     1.0000   1.0000   1.0000   1.0000   1.0000   1.0000   1.0000   1.0000
     1.0000   1.0000   1.0000   1.0000   1.0000   1.0000   1.0000   0.0000
     0.0000   0.0000   0.0000   0.0000

          k = 0.2222 0.3849 0.0000 ( 11734 PWs)   bands (ev):

   -28.9534 -28.8978 -28.8721 -28.8489 -28.8131 -28.8095 -28.7698 -28.7675
   -28.7361 -28.6969 -10.1431  -7.5238  -3.0053  -2.9651  -1.1551   1.9570
     2.1397   3.4603   5.4485   5.6964

     occupation numbers 
     1.0000   1.0000   1.0000   1.0000   1.0000   1.0000   1.0000   1.0000
     1.0000   1.0000   1.0000   1.0000   1.0000   1.0000   1.0000   0.0000
     0.0000   0.0000   0.0000   0.0000

          k = 0.2222 0.5132 0.0000 ( 11723 PWs)   bands (ev):

   -28.9526 -28.8818 -28.8584 -28.8354 -28.8296 -28.8091 -28.7900 -28.7646
   -28.7437 -28.6981  -9.4729  -8.2049  -3.5455  -2.5504  -1.6687   1.5053
     2.7064   3.2638   5.6810   6.5638

     occupation numbers 
     1.0000   1.0000   1.0000   1.0000   1.0000   1.0000   1.0000   1.0000
     1.0000   1.0000   1.0000   1.0000   1.0000   1.0000   1.0000   0.0000
     0.0000   0.0000   0.0000   0.0000

          k = 0.3333 0.5774 0.0000 ( 11736 PWs)   bands (ev):

   -28.9526 -28.8614 -28.8607 -28.8503 -28.8117 -28.8112 -28.8074 -28.7544
   -28.7540 -28.6989  -8.8225  -8.8221  -3.8257  -2.1068  -2.1067   1.1812
     3.2246   3.2248   6.3061   6.9671

     occupation numbers 
     1.0000   1.0000   1.0000   1.0000   1.0000   1.0000   1.0000   1.0000
     1.0000   1.0000   1.0000   1.0000   1.0000   1.0000   1.0000   0.0000
     0.0000   0.0000   0.0000   0.0000

     highest occupied, lowest unoccupied level (ev):    -0.3661    0.9409

!    total energy              =    -282.12626706 Ry
     estimated scf accuracy    <       0.00000038 Ry

     The total energy is the sum of the following terms:
     one-electron contribution =    -710.89702958 Ry
     hartree contribution      =     353.12487508 Ry
     xc contribution           =     -31.71917045 Ry
     ewald contribution        =     107.36505789 Ry

     convergence has been achieved in   6 iterations

     Forces acting on atoms (cartesian axes, Ry/au):

     atom    1 type  1   force =     0.00000000    0.00000000    0.00006265
     atom    2 type  1   force =     0.00000000   -0.00000000   -0.00006265
     The non-local contrib.  to forces
     atom    1 type  1   force =     0.00000000    0.00000000    0.56171772
     atom    2 type  1   force =     0.00000000    0.00000000   -0.56716724
     The ionic contribution  to forces
     atom    1 type  1   force =    -0.00000001    0.00000001  -34.44272567
     atom    2 type  1   force =     0.00000001   -0.00000001   34.44272567
     The local contribution  to forces
     atom    1 type  1   force =     0.00000000   -0.00000000   33.88063917
     atom    2 type  1   force =     0.00000018   -0.00000010  -33.88090884
     The core correction contribution to forces
     atom    1 type  1   force =     0.00000000    0.00000000    0.00000000
     atom    2 type  1   force =     0.00000000    0.00000000    0.00000000
     The Hubbard contrib.    to forces
     atom    1 type  1   force =     0.00000000    0.00000000    0.00000000
     atom    2 type  1   force =     0.00000000    0.00000000    0.00000000
     The SCF correction term to forces
     atom    1 type  1   force =     0.00000000   -0.00000000   -0.00000000
     atom    2 type  1   force =    -0.00000000    0.00000000    0.00223072

     Total force =     0.000063     Total SCF correction =     0.002231
     SCF correction compared to forces is large: reduce conv_thr to get better values


     Computing stress (Cartesian axis) and pressure

          total   stress  (Ry/bohr**3)                   (kbar)     P=        0.08
   0.00000031  -0.00000000   0.00000000            0.05       -0.00        0.00
   0.00000000   0.00000031   0.00000000            0.00        0.05        0.00
   0.00000000   0.00000000   0.00000105            0.00        0.00        0.15

     kinetic stress (kbar)   8553.89     -0.00      0.00
                               -0.00   8553.89     -0.00
                                0.00     -0.00   8584.56

     local   stress (kbar) -60071.53      0.00     -0.00
                                0.00 -60071.53      0.00
                               -0.00      0.00  58840.17

     nonloc. stress (kbar)  -2262.71     -0.00      0.00
                                0.00  -2262.71     -0.00
                                0.00     -0.00  -2241.93

     hartree stress (kbar)  30667.54     -0.00     -0.00
                               -0.00  30667.54     -0.00
                               -0.00     -0.00 -26579.51

     exc-cor stress (kbar)   -981.11      0.00     -0.00
                                0.00   -981.11     -0.00
                               -0.00     -0.00   -982.40

     corecor stress (kbar)      0.00      0.00      0.00
                                0.00      0.00      0.00
                                0.00      0.00      0.00

     ewald   stress (kbar)  24093.96     -0.00      0.00
                               -0.00  24093.96     -0.00
                                0.00     -0.00 -37620.74

     hubbard stress (kbar)      0.00      0.00      0.00
                                0.00      0.00      0.00
                                0.00      0.00      0.00

     DFT-D   stress (kbar)      0.00      0.00      0.00
                                0.00      0.00      0.00
                                0.00      0.00      0.00

     XDM     stress (kbar)      0.00      0.00      0.00
                                0.00      0.00      0.00
                                0.00      0.00      0.00

     dft-nl  stress (kbar)      0.00      0.00      0.00
                                0.00      0.00      0.00
                                0.00      0.00      0.00

     TS-vdW  stress (kbar)      0.00      0.00      0.00
                                0.00      0.00      0.00
                                0.00      0.00      0.00



     BFGS Geometry Optimization
     Energy error            =      0.0E+00
     Gradient error          =      6.3E-05
     Cell gradient error     =      3.1E-07


     number of scf cycles    =   1
     number of bfgs steps    =   0

     enthalpy new            =    -282.1262670585 Ry

     new trust radius        =       0.0000626541 bohr
     new conv_thr            =       0.0000010000 Ry

     new unit-cell volume =   1494.64504 a.u.^3 (   221.48354 Ang^3 )
     density =      0.18010 g/cm^3

CELL_PARAMETERS (alat=  7.80288704)
   1.000007675   0.000000000   0.000000000
  -0.500003838   0.866032051   0.000000000
   0.000000000   0.000000000   3.632744102

ATOMIC_POSITIONS (crystal)
Sb            0.0000000000        0.0000000000        0.5000000000    0   0   0
Sb            0.3333333330        0.6666666670        0.6089607897



     Writing output data file ./tmp/Sb.save/
     NEW-OLD atomic charge density approx. for the potential
     extrapolated charge   30.00046, renormalised to   30.00000

     total cpu time spent up to now is       10.1 secs

     Self-consistent Calculation

     iteration #  1     ecut=    60.00 Ry     beta= 0.70
     Davidson diagonalization with overlap
     ethr =  1.00E-06,  avg # of iterations =  1.5

     Threshold (ethr) on eigenvalues was too large:
     Diagonalizing with lowered threshold

     Davidson diagonalization with overlap
     ethr =  3.63E-09,  avg # of iterations =  2.4

     total cpu time spent up to now is       11.7 secs

     total energy              =    -282.12626663 Ry
     estimated scf accuracy    <       0.00000116 Ry

     iteration #  2     ecut=    60.00 Ry     beta= 0.70
     Davidson diagonalization with overlap
     ethr =  3.88E-09,  avg # of iterations =  2.7

     total cpu time spent up to now is       12.6 secs

     total energy              =    -282.12626686 Ry
     estimated scf accuracy    <       0.00000260 Ry

     iteration #  3     ecut=    60.00 Ry     beta= 0.70
     Davidson diagonalization with overlap
     ethr =  3.88E-09,  avg # of iterations =  2.0

     total cpu time spent up to now is       13.5 secs

     total energy              =    -282.12626724 Ry
     estimated scf accuracy    <       0.00000135 Ry

     iteration #  4     ecut=    60.00 Ry     beta= 0.70
     Davidson diagonalization with overlap
     ethr =  3.88E-09,  avg # of iterations =  1.6

     total cpu time spent up to now is       14.2 secs

     End of self-consistent calculation

          k = 0.0000 0.0000 0.0000 ( 11745 PWs)   bands (ev):

   -28.9567 -28.9567 -28.8855 -28.8855 -28.8212 -28.7745 -28.7745 -28.7224
   -28.6917 -28.6917 -11.6020  -6.6193  -0.9101  -0.3646  -0.3646   1.1874
     2.4243   2.4243   4.1243   4.1252

     occupation numbers 
     1.0000   1.0000   1.0000   1.0000   1.0000   1.0000   1.0000   1.0000
     1.0000   1.0000   1.0000   1.0000   1.0000   1.0000   1.0000   0.0000
     0.0000   0.0000   0.0000   0.0000

          k = 0.0000 0.1283 0.0000 ( 11769 PWs)   bands (ev):

   -28.9560 -28.9506 -28.8844 -28.8814 -28.8201 -28.7774 -28.7743 -28.7244
   -28.6985 -28.6920 -11.4718  -6.6236  -1.4382  -0.8592  -0.6426   1.7042
     2.4649   2.6869   4.2628   4.3074

     occupation numbers 
     1.0000   1.0000   1.0000   1.0000   1.0000   1.0000   1.0000   1.0000
     1.0000   1.0000   1.0000   1.0000   1.0000   1.0000   1.0000   0.0000
     0.0000   0.0000   0.0000   0.0000

          k = 0.0000 0.2566 0.0000 ( 11741 PWs)   bands (ev):

   -28.9541 -28.9339 -28.8809 -28.8701 -28.8166 -28.7858 -28.7741 -28.7320
   -28.7155 -28.6929 -11.0895  -6.7461  -2.7070  -1.1698  -0.8248   1.1183
     3.0649   3.1197   4.5576   4.7445

     occupation numbers 
     1.0000   1.0000   1.0000   1.0000   1.0000   1.0000   1.0000   1.0000
     1.0000   1.0000   1.0000   1.0000   1.0000   1.0000   1.0000   0.0000
     0.0000   0.0000   0.0000   0.0000

          k = 0.0000 0.3849 0.0000 ( 11722 PWs)   bands (ev):

   -28.9519 -28.9129 -28.8723 -28.8538 -28.8128 -28.7989 -28.7751 -28.7525
   -28.7281 -28.6939 -10.4923  -7.2398  -3.3086  -1.6180  -1.1510   0.9424
     2.7266   3.1947   5.0669   5.1967

     occupation numbers 
     1.0000   1.0000   1.0000   1.0000   1.0000   1.0000   1.0000   1.0000
     1.0000   1.0000   1.0000   1.0000   1.0000   1.0000   1.0000   0.0000
     0.0000   0.0000   0.0000   0.0000

          k = 0.0000 0.5132 0.0000 ( 11696 PWs)   bands (ev):

   -28.9503 -28.9012 -28.8515 -28.8353 -28.8193 -28.8153 -28.7778 -28.7711
   -28.7335 -28.6947  -9.8410  -7.9615  -3.2862  -1.8623  -1.6735   1.2095
     2.2079   3.1850   4.8349   6.1143

     occupation numbers 
     1.0000   1.0000   1.0000   1.0000   1.0000   1.0000   1.0000   1.0000
     1.0000   1.0000   1.0000   1.0000   1.0000   1.0000   1.0000   0.0000
     0.0000   0.0000   0.0000   0.0000

          k = 0.1111 0.1924 0.0000 ( 11733 PWs)   bands (ev):

   -28.9548 -28.9389 -28.8820 -28.8741 -28.8176 -28.7835 -28.7736 -28.7290
   -28.7106 -28.6927 -11.2151  -6.6845  -2.3243  -1.2944  -0.7922   1.8820
     2.2759   3.3022   4.5236   4.5829

     occupation numbers 
     1.0000   1.0000   1.0000   1.0000   1.0000   1.0000   1.0000   1.0000
     1.0000   1.0000   1.0000   1.0000   1.0000   1.0000   1.0000   0.0000
     0.0000   0.0000   0.0000   0.0000

          k = 0.1111 0.3207 0.0000 ( 11734 PWs)   bands (ev):

   -28.9530 -28.9185 -28.8768 -28.8609 -28.8131 -28.7953 -28.7726 -28.7438
   -28.7255 -28.6939 -10.7207  -6.9963  -3.0502  -2.0137  -0.8769   1.5079
     2.6755   3.2224   4.9126   5.0812

     occupation numbers 
     1.0000   1.0000   1.0000   1.0000   1.0000   1.0000   1.0000   1.0000
     1.0000   1.0000   1.0000   1.0000   1.0000   1.0000   1.0000   0.0000
     0.0000   0.0000   0.0000   0.0000

          k = 0.1111 0.4490 0.0000 ( 11726 PWs)   bands (ev):

   -28.9513 -28.8997 -28.8637 -28.8439 -28.8140 -28.8087 -28.7740 -28.7664
   -28.7337 -28.6950 -10.0581  -7.6665  -3.2858  -2.3340  -1.3404   1.5538
     2.4977   2.9537   5.1728   5.7596

     occupation numbers 
     1.0000   1.0000   1.0000   1.0000   1.0000   1.0000   1.0000   1.0000
     1.0000   1.0000   1.0000   1.0000   1.0000   1.0000   1.0000   0.0000
     0.0000   0.0000   0.0000   0.0000

          k = 0.1111 0.5773 0.0000 ( 11688 PWs)   bands (ev):

   -28.9505 -28.8941 -28.8422 -28.8367 -28.8237 -28.8181 -28.7816 -28.7700
   -28.7368 -28.6955  -9.5990  -8.1715  -3.2993  -2.2534  -1.7676   1.9502
     1.9827   2.9689   4.9381   6.8059

     occupation numbers 
     1.0000   1.0000   1.0000   1.0000   1.0000   1.0000   1.0000   1.0000
     1.0000   1.0000   1.0000   1.0000   1.0000   1.0000   1.0000   0.0000
     0.0000   0.0000   0.0000   0.0000

          k = 0.2222 0.3849 0.0000 ( 11734 PWs)   bands (ev):

   -28.9519 -28.8963 -28.8706 -28.8474 -28.8117 -28.8081 -28.7684 -28.7661
   -28.7347 -28.6955 -10.1413  -7.5223  -3.0036  -2.9638  -1.1542   1.9583
     2.1409   3.4617   5.4493   5.6956

     occupation numbers 
     1.0000   1.0000   1.0000   1.0000   1.0000   1.0000   1.0000   1.0000
     1.0000   1.0000   1.0000   1.0000   1.0000   1.0000   1.0000   0.0000
     0.0000   0.0000   0.0000   0.0000

          k = 0.2222 0.5132 0.0000 ( 11723 PWs)   bands (ev):

   -28.9511 -28.8803 -28.8569 -28.8339 -28.8281 -28.8077 -28.7886 -28.7632
   -28.7423 -28.6967  -9.4711  -8.2033  -3.5438  -2.5492  -1.6677   1.5067
     2.7076   3.2651   5.6822   6.5633

     occupation numbers 
     1.0000   1.0000   1.0000   1.0000   1.0000   1.0000   1.0000   1.0000
     1.0000   1.0000   1.0000   1.0000   1.0000   1.0000   1.0000   0.0000
     0.0000   0.0000   0.0000   0.0000

          k = 0.3333 0.5773 0.0000 ( 11736 PWs)   bands (ev):

   -28.9511 -28.8596 -28.8595 -28.8489 -28.8101 -28.8101 -28.8059 -28.7528
   -28.7528 -28.6975  -8.8207  -8.8207  -3.8239  -2.1057  -2.1057   1.1826
     3.2259   3.2259   6.3063   6.9679

     occupation numbers 
     1.0000   1.0000   1.0000   1.0000   1.0000   1.0000   1.0000   1.0000
     1.0000   1.0000   1.0000   1.0000   1.0000   1.0000   1.0000   0.0000
     0.0000   0.0000   0.0000   0.0000

     highest occupied, lowest unoccupied level (ev):    -0.3646    0.9424

!    total energy              =    -282.12626738 Ry
     estimated scf accuracy    <       0.00000002 Ry

     The total energy is the sum of the following terms:
     one-electron contribution =    -710.88995682 Ry
     hartree contribution      =     353.11935058 Ry
     xc contribution           =     -31.71911921 Ry
     ewald contribution        =     107.36345806 Ry

     convergence has been achieved in   4 iterations

     Forces acting on atoms (cartesian axes, Ry/au):

     atom    1 type  1   force =     0.00000000    0.00000000    0.00011913
     atom    2 type  1   force =     0.00000000   -0.00000000   -0.00011913
     The non-local contrib.  to forces
     atom    1 type  1   force =     0.00000000    0.00000000    0.56456484
     atom    2 type  1   force =     0.00000000    0.00000000   -0.56478517
     The ionic contribution  to forces
     atom    1 type  1   force =    -0.00000001    0.00000001  -34.44191016
     atom    2 type  1   force =     0.00000001   -0.00000001   34.44191016
     The local contribution  to forces
     atom    1 type  1   force =     0.00000000   -0.00000000   33.87771800
     atom    2 type  1   force =     0.00000018   -0.00000010  -33.87796160
     The core correction contribution to forces
     atom    1 type  1   force =     0.00000000    0.00000000    0.00000000
     atom    2 type  1   force =     0.00000000    0.00000000    0.00000000
     The Hubbard contrib.    to forces
     atom    1 type  1   force =     0.00000000    0.00000000    0.00000000
     atom    2 type  1   force =     0.00000000    0.00000000    0.00000000
     The SCF correction term to forces
     atom    1 type  1   force =     0.00000000   -0.00000000   -0.00000000
     atom    2 type  1   force =    -0.00000000    0.00000000    0.00057938

     Total force =     0.000119     Total SCF correction =     0.000579
     SCF correction compared to forces is large: reduce conv_thr to get better values


     Computing stress (Cartesian axis) and pressure

          total   stress  (Ry/bohr**3)                   (kbar)     P=        0.09
   0.00000074   0.00000000   0.00000000            0.11        0.00        0.00
   0.00000000   0.00000074   0.00000000            0.00        0.11        0.00
   0.00000000  -0.00000000   0.00000035            0.00       -0.00        0.05

     kinetic stress (kbar)   8553.77     -0.00      0.00
                               -0.00   8553.77      0.00
                                0.00      0.00   8584.42

     local   stress (kbar) -60069.76      0.00     -0.00
                                0.00 -60069.76      0.00
                               -0.00      0.00  58838.30

     nonloc. stress (kbar)  -2262.67     -0.00      0.00
                               -0.00  -2262.67      0.00
                                0.00      0.00  -2241.91

     hartree stress (kbar)  30666.46     -0.00     -0.00
                               -0.00  30666.46     -0.00
                               -0.00     -0.00 -26578.41

     exc-cor stress (kbar)   -981.10      0.00      0.00
                                0.00   -981.10     -0.00
                                0.00     -0.00   -982.39

     corecor stress (kbar)      0.00      0.00      0.00
                                0.00      0.00      0.00
                                0.00      0.00      0.00

     ewald   stress (kbar)  24093.41     -0.00      0.00
                               -0.00  24093.41     -0.00
                                0.00     -0.00 -37619.95

     hubbard stress (kbar)      0.00      0.00      0.00
                                0.00      0.00      0.00
                                0.00      0.00      0.00

     DFT-D   stress (kbar)      0.00      0.00      0.00
                                0.00      0.00      0.00
                                0.00      0.00      0.00

     XDM     stress (kbar)      0.00      0.00      0.00
                                0.00      0.00      0.00
                                0.00      0.00      0.00

     dft-nl  stress (kbar)      0.00      0.00      0.00
                                0.00      0.00      0.00
                                0.00      0.00      0.00

     TS-vdW  stress (kbar)      0.00      0.00      0.00
                                0.00      0.00      0.00
                                0.00      0.00      0.00


     Energy error            =      3.2E-07
     Gradient error          =      1.2E-04
     Cell gradient error     =      7.4E-07


     number of scf cycles    =   2
     number of bfgs steps    =   1

     enthalpy old            =    -282.1262670585 Ry
     enthalpy new            =    -282.1262673797 Ry

     CASE: enthalpy_new < enthalpy_old


     WARNING: bfgs curvature condition failed, Theta= 0.359
     small trust_radius: resetting bfgs history

     new trust radius        =       0.0001000000 bohr
     new conv_thr            =       0.0000000100 Ry

     new unit-cell volume =   1494.68370 a.u.^3 (   221.48927 Ang^3 )
     density =      0.18010 g/cm^3

CELL_PARAMETERS (alat=  7.80288704)
   1.000020608   0.000000000   0.000000000
  -0.500010304   0.866043251   0.000000000
   0.000000000   0.000000000   3.632744102

ATOMIC_POSITIONS (crystal)
Sb            0.0000000000        0.0000000000        0.5000000000    0   0   0
Sb            0.3333333330        0.6666666670        0.6089578508



     Writing output data file ./tmp/Sb.save/
     NEW-OLD atomic charge density approx. for the potential
     extrapolated charge   30.00077, renormalised to   30.00000

     total cpu time spent up to now is       14.9 secs

     Self-consistent Calculation

     iteration #  1     ecut=    60.00 Ry     beta= 0.70
     Davidson diagonalization with overlap
     ethr =  1.00E-06,  avg # of iterations =  1.2

     Threshold (ethr) on eigenvalues was too large:
     Diagonalizing with lowered threshold

     Davidson diagonalization with overlap
     ethr =  1.60E-09,  avg # of iterations =  2.0

     total cpu time spent up to now is       16.4 secs

     total energy              =    -282.12626694 Ry
     estimated scf accuracy    <       0.00000042 Ry

     iteration #  2     ecut=    60.00 Ry     beta= 0.70
     Davidson diagonalization with overlap
     ethr =  1.40E-09,  avg # of iterations =  3.1

     total cpu time spent up to now is       17.4 secs

     total energy              =    -282.12626732 Ry
     estimated scf accuracy    <       0.00000090 Ry

     iteration #  3     ecut=    60.00 Ry     beta= 0.70
     Davidson diagonalization with overlap
     ethr =  1.40E-09,  avg # of iterations =  2.0

     total cpu time spent up to now is       18.3 secs

     total energy              =    -282.12626741 Ry
     estimated scf accuracy    <       0.00000019 Ry

     iteration #  4     ecut=    60.00 Ry     beta= 0.70
     Davidson diagonalization with overlap
     ethr =  6.17E-10,  avg # of iterations =  1.1

     total cpu time spent up to now is       19.0 secs

     total energy              =    -282.12626742 Ry
     estimated scf accuracy    <       0.00000005 Ry

     iteration #  5     ecut=    60.00 Ry     beta= 0.70
     Davidson diagonalization with overlap
     ethr =  1.78E-10,  avg # of iterations =  2.0

     total cpu time spent up to now is       19.8 secs

     total energy              =    -282.12626741 Ry
     estimated scf accuracy    <       0.00000003 Ry

     iteration #  6     ecut=    60.00 Ry     beta= 0.70
     Davidson diagonalization with overlap
     ethr =  9.45E-11,  avg # of iterations =  1.1

     total cpu time spent up to now is       20.5 secs

     total energy              =    -282.12626741 Ry
     estimated scf accuracy    <       0.00000002 Ry

     iteration #  7     ecut=    60.00 Ry     beta= 0.70
     Davidson diagonalization with overlap
     ethr =  5.56E-11,  avg # of iterations =  1.1

     total cpu time spent up to now is       21.2 secs

     End of self-consistent calculation

          k = 0.0000 0.0000 0.0000 ( 11745 PWs)   bands (ev):

   -28.9566 -28.9566 -28.8855 -28.8855 -28.8212 -28.7744 -28.7744 -28.7224
   -28.6917 -28.6917 -11.6020  -6.6192  -0.9100  -0.3648  -0.3648   1.1871
     2.4242   2.4242   4.1242   4.1250

     occupation numbers 
     1.0000   1.0000   1.0000   1.0000   1.0000   1.0000   1.0000   1.0000
     1.0000   1.0000   1.0000   1.0000   1.0000   1.0000   1.0000   0.0000
     0.0000   0.0000   0.0000   0.0000

          k =-0.0000 0.1283 0.0000 ( 11769 PWs)   bands (ev):

   -28.9560 -28.9506 -28.8844 -28.8814 -28.8200 -28.7774 -28.7742 -28.7244
   -28.6985 -28.6920 -11.4717  -6.6235  -1.4383  -0.8591  -0.6428   1.7040
     2.4648   2.6868   4.2626   4.3073

     occupation numbers 
     1.0000   1.0000   1.0000   1.0000   1.0000   1.0000   1.0000   1.0000
     1.0000   1.0000   1.0000   1.0000   1.0000   1.0000   1.0000   0.0000
     0.0000   0.0000   0.0000   0.0000

          k =-0.0000 0.2566 0.0000 ( 11741 PWs)   bands (ev):

   -28.9541 -28.9338 -28.8809 -28.8701 -28.8166 -28.7858 -28.7741 -28.7320
   -28.7155 -28.6929 -11.0894  -6.7461  -2.7070  -1.1699  -0.8247   1.1182
     3.0648   3.1195   4.5575   4.7444

     occupation numbers 
     1.0000   1.0000   1.0000   1.0000   1.0000   1.0000   1.0000   1.0000
     1.0000   1.0000   1.0000   1.0000   1.0000   1.0000   1.0000   0.0000
     0.0000   0.0000   0.0000   0.0000

          k =-0.0000 0.3849 0.0000 ( 11722 PWs)   bands (ev):

   -28.9519 -28.9129 -28.8722 -28.8538 -28.8128 -28.7989 -28.7751 -28.7525
   -28.7281 -28.6939 -10.4923  -7.2398  -3.3086  -1.6181  -1.1509   0.9424
     2.7266   3.1946   5.0668   5.1965

     occupation numbers 
     1.0000   1.0000   1.0000   1.0000   1.0000   1.0000   1.0000   1.0000
     1.0000   1.0000   1.0000   1.0000   1.0000   1.0000   1.0000   0.0000
     0.0000   0.0000   0.0000   0.0000

          k =-0.0000 0.5132 0.0000 ( 11696 PWs)   bands (ev):

   -28.9503 -28.9011 -28.8514 -28.8353 -28.8192 -28.8153 -28.7778 -28.7710
   -28.7335 -28.6946  -9.8410  -7.9616  -3.2862  -1.8625  -1.6734   1.2094
     2.2080   3.1849   4.8349   6.1141

     occupation numbers 
     1.0000   1.0000   1.0000   1.0000   1.0000   1.0000   1.0000   1.0000
     1.0000   1.0000   1.0000   1.0000   1.0000   1.0000   1.0000   0.0000
     0.0000   0.0000   0.0000   0.0000

          k = 0.1111 0.1924 0.0000 ( 11733 PWs)   bands (ev):

   -28.9548 -28.9389 -28.8820 -28.8740 -28.8176 -28.7835 -28.7736 -28.7290
   -28.7106 -28.6927 -11.2151  -6.6845  -2.3244  -1.2945  -0.7922   1.8819
     2.2757   3.3020   4.5235   4.5827

     occupation numbers 
     1.0000   1.0000   1.0000   1.0000   1.0000   1.0000   1.0000   1.0000
     1.0000   1.0000   1.0000   1.0000   1.0000   1.0000   1.0000   0.0000
     0.0000   0.0000   0.0000   0.0000

          k = 0.1111 0.3207 0.0000 ( 11734 PWs)   bands (ev):

   -28.9530 -28.9185 -28.8768 -28.8609 -28.8131 -28.7953 -28.7726 -28.7438
   -28.7255 -28.6938 -10.7207  -6.9963  -3.0502  -2.0138  -0.8769   1.5079
     2.6754   3.2223   4.9125   5.0810

     occupation numbers 
     1.0000   1.0000   1.0000   1.0000   1.0000   1.0000   1.0000   1.0000
     1.0000   1.0000   1.0000   1.0000   1.0000   1.0000   1.0000   0.0000
     0.0000   0.0000   0.0000   0.0000

          k = 0.1111 0.4490 0.0000 ( 11726 PWs)   bands (ev):

   -28.9512 -28.8997 -28.8637 -28.8439 -28.8140 -28.8087 -28.7740 -28.7664
   -28.7337 -28.6950 -10.0581  -7.6665  -3.2858  -2.3340  -1.3404   1.5538
     2.4977   2.9536   5.1727   5.7595

     occupation numbers 
     1.0000   1.0000   1.0000   1.0000   1.0000   1.0000   1.0000   1.0000
     1.0000   1.0000   1.0000   1.0000   1.0000   1.0000   1.0000   0.0000
     0.0000   0.0000   0.0000   0.0000

          k = 0.1111 0.5773 0.0000 ( 11688 PWs)   bands (ev):

   -28.9505 -28.8941 -28.8422 -28.8367 -28.8237 -28.8181 -28.7816 -28.7699
   -28.7368 -28.6955  -9.5990  -8.1716  -3.2993  -2.2534  -1.7675   1.9503
     1.9826   2.9689   4.9381   6.8055

     occupation numbers 
     1.0000   1.0000   1.0000   1.0000   1.0000   1.0000   1.0000   1.0000
     1.0000   1.0000   1.0000   1.0000   1.0000   1.0000   1.0000   0.0000
     0.0000   0.0000   0.0000   0.0000

          k = 0.2222 0.3849 0.0000 ( 11734 PWs)   bands (ev):

   -28.9519 -28.8963 -28.8706 -28.8474 -28.8117 -28.8080 -28.7684 -28.7661
   -28.7347 -28.6954 -10.1413  -7.5223  -3.0036  -2.9637  -1.1542   1.9583
     2.1410   3.4616   5.4491   5.6954

     occupation numbers 
     1.0000   1.0000   1.0000   1.0000   1.0000   1.0000   1.0000   1.0000
     1.0000   1.0000   1.0000   1.0000   1.0000   1.0000   1.0000   0.0000
     0.0000   0.0000   0.0000   0.0000

          k = 0.2222 0.5132 0.0000 ( 11723 PWs)   bands (ev):

   -28.9511 -28.8803 -28.8569 -28.8339 -28.8281 -28.8076 -28.7886 -28.7632
   -28.7423 -28.6966  -9.4712  -8.2034  -3.5438  -2.5491  -1.6677   1.5067
     2.7076   3.2650   5.6821   6.5629

     occupation numbers 
     1.0000   1.0000   1.0000   1.0000   1.0000   1.0000   1.0000   1.0000
     1.0000   1.0000   1.0000   1.0000   1.0000   1.0000   1.0000   0.0000
     0.0000   0.0000   0.0000   0.0000

          k = 0.3333 0.5773 0.0000 ( 11736 PWs)   bands (ev):

   -28.9511 -28.8596 -28.8595 -28.8488 -28.8100 -28.8100 -28.8059 -28.7528
   -28.7528 -28.6975  -8.8207  -8.8207  -3.8239  -2.1057  -2.1057   1.1827
     3.2259   3.2259   6.3062   6.9676

     occupation numbers 
     1.0000   1.0000   1.0000   1.0000   1.0000   1.0000   1.0000   1.0000
     1.0000   1.0000   1.0000   1.0000   1.0000   1.0000   1.0000   0.0000
     0.0000   0.0000   0.0000   0.0000

     highest occupied, lowest unoccupied level (ev):    -0.3648    0.9424

!    total energy              =    -282.12626740 Ry
     estimated scf accuracy    <          8.7E-09 Ry

     The total energy is the sum of the following terms:
     one-electron contribution =    -710.88224761 Ry
     hartree contribution      =     353.11507438 Ry
     xc contribution           =     -31.71908950 Ry
     ewald contribution        =     107.35999533 Ry

     convergence has been achieved in   7 iterations

     Forces acting on atoms (cartesian axes, Ry/au):

     atom    1 type  1   force =    -0.00000000    0.00000000   -0.00003180
     atom    2 type  1   force =     0.00000000   -0.00000000    0.00003180
     The non-local contrib.  to forces
     atom    1 type  1   force =    -0.00000000    0.00000000    0.56453884
     atom    2 type  1   force =    -0.00000000    0.00000000   -0.56455599
     The ionic contribution  to forces
     atom    1 type  1   force =    -0.00000001    0.00000001  -34.44058682
     atom    2 type  1   force =     0.00000001   -0.00000001   34.44058682
     The local contribution  to forces
     atom    1 type  1   force =     0.00000000   -0.00000000   33.87636045
     atom    2 type  1   force =     0.00000018   -0.00000010  -33.87638705
     The core correction contribution to forces
     atom    1 type  1   force =     0.00000000    0.00000000    0.00000000
     atom    2 type  1   force =     0.00000000    0.00000000    0.00000000
     The Hubbard contrib.    to forces
     atom    1 type  1   force =     0.00000000    0.00000000    0.00000000
     atom    2 type  1   force =     0.00000000    0.00000000    0.00000000
     The SCF correction term to forces
     atom    1 type  1   force =     0.00000000   -0.00000000   -0.00000000
     atom    2 type  1   force =    -0.00000000    0.00000000    0.00037916

     Total force =     0.000032     Total SCF correction =     0.000379
     SCF correction compared to forces is large: reduce conv_thr to get better values


     Computing stress (Cartesian axis) and pressure

          total   stress  (Ry/bohr**3)                   (kbar)     P=        0.07
   0.00000063  -0.00000000  -0.00000000            0.09       -0.00       -0.00
  -0.00000000   0.00000063   0.00000000           -0.00        0.09        0.00
  -0.00000000   0.00000000   0.00000019           -0.00        0.00        0.03

     kinetic stress (kbar)   8553.54      0.00     -0.00
                               -0.00   8553.54      0.00
                               -0.00      0.00   8584.19

     local   stress (kbar) -60067.34      0.00     -0.00
                                0.00 -60067.34      0.00
                               -0.00      0.00  58835.79

     nonloc. stress (kbar)  -2262.62     -0.00      0.00
                               -0.00  -2262.62     -0.00
                                0.00     -0.00  -2241.85

     hartree stress (kbar)  30665.20      0.00     -0.00
                                0.00  30665.20     -0.00
                               -0.00     -0.00 -26577.22

     exc-cor stress (kbar)   -981.07     -0.00     -0.00
                               -0.00   -981.07     -0.00
                               -0.00     -0.00   -982.36

     corecor stress (kbar)      0.00      0.00      0.00
                                0.00      0.00      0.00
                                0.00      0.00      0.00

     ewald   stress (kbar)  24092.38     -0.00      0.00
                               -0.00  24092.38     -0.00
                                0.00     -0.00 -37618.52

     hubbard stress (kbar)      0.00      0.00      0.00
                                0.00      0.00      0.00
                                0.00      0.00      0.00

     DFT-D   stress (kbar)      0.00      0.00      0.00
                                0.00      0.00      0.00
                                0.00      0.00      0.00

     XDM     stress (kbar)      0.00      0.00      0.00
                                0.00      0.00      0.00
                                0.00      0.00      0.00

     dft-nl  stress (kbar)      0.00      0.00      0.00
                                0.00      0.00      0.00
                                0.00      0.00      0.00

     TS-vdW  stress (kbar)      0.00      0.00      0.00
                                0.00      0.00      0.00
                                0.00      0.00      0.00


     Energy error            =      2.2E-08
     Gradient error          =      3.2E-05
     Cell gradient error     =      6.3E-07


     number of scf cycles    =   3
     number of bfgs steps    =   2

     enthalpy old            =    -282.1262673797 Ry
     enthalpy new            =    -282.1262674019 Ry

     CASE: enthalpy_new < enthalpy_old

     new trust radius        =       0.0001500000 bohr
     new conv_thr            =       0.0000000100 Ry

     new unit-cell volume =   1494.74169 a.u.^3 (   221.49787 Ang^3 )
     density =      0.18009 g/cm^3

CELL_PARAMETERS (alat=  7.80288704)
   1.000040008   0.000000000   0.000000000
  -0.500020004   0.866060052   0.000000000
   0.000000000   0.000000000   3.632744102

ATOMIC_POSITIONS (crystal)
Sb            0.0000000000        0.0000000000        0.5000000000    0   0   0
Sb            0.3333333330        0.6666666670        0.6089574157



     Writing output data file ./tmp/Sb.save/
     NEW-OLD atomic charge density approx. for the potential
     extrapolated charge   30.00116, renormalised to   30.00000

     total cpu time spent up to now is       21.9 secs

     Self-consistent Calculation

     iteration #  1     ecut=    60.00 Ry     beta= 0.70
     Davidson diagonalization with overlap
     ethr =  1.00E-06,  avg # of iterations =  1.1

     Threshold (ethr) on eigenvalues was too large:
     Diagonalizing with lowered threshold

     Davidson diagonalization with overlap
     ethr =  2.19E-09,  avg # of iterations =  1.0

     total cpu time spent up to now is       23.3 secs

     total energy              =    -282.12626658 Ry
     estimated scf accuracy    <       0.00000066 Ry

     iteration #  2     ecut=    60.00 Ry     beta= 0.70
     Davidson diagonalization with overlap
     ethr =  2.20E-09,  avg # of iterations =  3.1

     total cpu time spent up to now is       24.3 secs

     total energy              =    -282.12626735 Ry
     estimated scf accuracy    <       0.00000147 Ry

     iteration #  3     ecut=    60.00 Ry     beta= 0.70
     Davidson diagonalization with overlap
     ethr =  2.20E-09,  avg # of iterations =  2.0

     total cpu time spent up to now is       25.2 secs

     total energy              =    -282.12626746 Ry
     estimated scf accuracy    <       0.00000018 Ry

     iteration #  4     ecut=    60.00 Ry     beta= 0.70
     Davidson diagonalization with overlap
     ethr =  5.90E-10,  avg # of iterations =  2.0

     total cpu time spent up to now is       26.0 secs

     total energy              =    -282.12626746 Ry
     estimated scf accuracy    <       0.00000009 Ry

     iteration #  5     ecut=    60.00 Ry     beta= 0.70
     Davidson diagonalization with overlap
     ethr =  2.96E-10,  avg # of iterations =  1.0

     total cpu time spent up to now is       26.7 secs

     total energy              =    -282.12626745 Ry
     estimated scf accuracy    <       0.00000006 Ry

     iteration #  6     ecut=    60.00 Ry     beta= 0.70
     Davidson diagonalization with overlap
     ethr =  2.16E-10,  avg # of iterations =  1.1

     total cpu time spent up to now is       27.4 secs

     total energy              =    -282.12626744 Ry
     estimated scf accuracy    <       0.00000004 Ry

     iteration #  7     ecut=    60.00 Ry     beta= 0.70
     Davidson diagonalization with overlap
     ethr =  1.20E-10,  avg # of iterations =  1.0

     total cpu time spent up to now is       28.1 secs

     total energy              =    -282.12626744 Ry
     estimated scf accuracy    <       0.00000003 Ry

     iteration #  8     ecut=    60.00 Ry     beta= 0.70
     Davidson diagonalization with overlap
     ethr =  8.49E-11,  avg # of iterations =  1.2

     total cpu time spent up to now is       28.8 secs

     total energy              =    -282.12626743 Ry
     estimated scf accuracy    <       0.00000001 Ry

     iteration #  9     ecut=    60.00 Ry     beta= 0.70
     Davidson diagonalization with overlap
     ethr =  4.93E-11,  avg # of iterations =  2.0

     total cpu time spent up to now is       29.6 secs

     End of self-consistent calculation

          k = 0.0000 0.0000 0.0000 ( 11745 PWs)   bands (ev):

   -28.9565 -28.9565 -28.8854 -28.8854 -28.8211 -28.7743 -28.7743 -28.7223
   -28.6916 -28.6916 -11.6017  -6.6192  -0.9099  -0.3649  -0.3649   1.1869
     2.4240   2.4240   4.1240   4.1248

     occupation numbers 
     1.0000   1.0000   1.0000   1.0000   1.0000   1.0000   1.0000   1.0000
     1.0000   1.0000   1.0000   1.0000   1.0000   1.0000   1.0000   0.0000
     0.0000   0.0000   0.0000   0.0000

          k =-0.0000 0.1283 0.0000 ( 11769 PWs)   bands (ev):

   -28.9558 -28.9505 -28.8843 -28.8813 -28.8199 -28.7773 -28.7741 -28.7243
   -28.6984 -28.6919 -11.4714  -6.6235  -1.4383  -0.8591  -0.6429   1.7038
     2.4646   2.6866   4.2625   4.3071

     occupation numbers 
     1.0000   1.0000   1.0000   1.0000   1.0000   1.0000   1.0000   1.0000
     1.0000   1.0000   1.0000   1.0000   1.0000   1.0000   1.0000   0.0000
     0.0000   0.0000   0.0000   0.0000

          k =-0.0000 0.2566 0.0000 ( 11741 PWs)   bands (ev):

   -28.9540 -28.9337 -28.8808 -28.8700 -28.8165 -28.7857 -28.7740 -28.7319
   -28.7154 -28.6928 -11.0892  -6.7461  -2.7069  -1.1700  -0.8247   1.1181
     3.0646   3.1194   4.5574   4.7442

     occupation numbers 
     1.0000   1.0000   1.0000   1.0000   1.0000   1.0000   1.0000   1.0000
     1.0000   1.0000   1.0000   1.0000   1.0000   1.0000   1.0000   0.0000
     0.0000   0.0000   0.0000   0.0000

          k =-0.0000 0.3849 0.0000 ( 11722 PWs)   bands (ev):

   -28.9517 -28.9128 -28.8721 -28.8537 -28.8127 -28.7988 -28.7750 -28.7524
   -28.7280 -28.6938 -10.4921  -7.2398  -3.3084  -1.6181  -1.1509   0.9424
     2.7265   3.1945   5.0667   5.1964

     occupation numbers 
     1.0000   1.0000   1.0000   1.0000   1.0000   1.0000   1.0000   1.0000
     1.0000   1.0000   1.0000   1.0000   1.0000   1.0000   1.0000   0.0000
     0.0000   0.0000   0.0000   0.0000

          k =-0.0000 0.5132 0.0000 ( 11696 PWs)   bands (ev):

   -28.9502 -28.9010 -28.8513 -28.8352 -28.8191 -28.8152 -28.7777 -28.7709
   -28.7334 -28.6945  -9.8409  -7.9615  -3.2860  -1.8624  -1.6734   1.2093
     2.2080   3.1848   4.8349   6.1138

     occupation numbers 
     1.0000   1.0000   1.0000   1.0000   1.0000   1.0000   1.0000   1.0000
     1.0000   1.0000   1.0000   1.0000   1.0000   1.0000   1.0000   0.0000
     0.0000   0.0000   0.0000   0.0000

          k = 0.1111 0.1924 0.0000 ( 11733 PWs)   bands (ev):

   -28.9547 -28.9388 -28.8818 -28.8739 -28.8175 -28.7834 -28.7735 -28.7289
   -28.7105 -28.6926 -11.2148  -6.6845  -2.3243  -1.2945  -0.7921   1.8818
     2.2756   3.3018   4.5233   4.5826

     occupation numbers 
     1.0000   1.0000   1.0000   1.0000   1.0000   1.0000   1.0000   1.0000
     1.0000   1.0000   1.0000   1.0000   1.0000   1.0000   1.0000   0.0000
     0.0000   0.0000   0.0000   0.0000

          k = 0.1111 0.3207 0.0000 ( 11734 PWs)   bands (ev):

   -28.9529 -28.9184 -28.8767 -28.8608 -28.8130 -28.7952 -28.7725 -28.7437
   -28.7254 -28.6938 -10.7204  -6.9963  -3.0501  -2.0138  -0.8769   1.5078
     2.6753   3.2222   4.9123   5.0808

     occupation numbers 
     1.0000   1.0000   1.0000   1.0000   1.0000   1.0000   1.0000   1.0000
     1.0000   1.0000   1.0000   1.0000   1.0000   1.0000   1.0000   0.0000
     0.0000   0.0000   0.0000   0.0000

          k = 0.1111 0.4490 0.0000 ( 11726 PWs)   bands (ev):

   -28.9511 -28.8996 -28.8636 -28.8438 -28.8139 -28.8086 -28.7739 -28.7663
   -28.7336 -28.6949 -10.0579  -7.6665  -3.2856  -2.3340  -1.3404   1.5537
     2.4976   2.9535   5.1726   5.7593

     occupation numbers 
     1.0000   1.0000   1.0000   1.0000   1.0000   1.0000   1.0000   1.0000
     1.0000   1.0000   1.0000   1.0000   1.0000   1.0000   1.0000   0.0000
     0.0000   0.0000   0.0000   0.0000

          k = 0.1111 0.5773 0.0000 ( 11688 PWs)   bands (ev):

   -28.9504 -28.8940 -28.8421 -28.8366 -28.8236 -28.8180 -28.7815 -28.7698
   -28.7367 -28.6954  -9.5989  -8.1715  -3.2992  -2.2534  -1.7675   1.9503
     1.9825   2.9688   4.9380   6.8051

     occupation numbers 
     1.0000   1.0000   1.0000   1.0000   1.0000   1.0000   1.0000   1.0000
     1.0000   1.0000   1.0000   1.0000   1.0000   1.0000   1.0000   0.0000
     0.0000   0.0000   0.0000   0.0000

          k = 0.2222 0.3849 0.0000 ( 11734 PWs)   bands (ev):

   -28.9518 -28.8962 -28.8705 -28.8473 -28.8116 -28.8079 -28.7683 -28.7660
   -28.7346 -28.6954 -10.1411  -7.5223  -3.0035  -2.9636  -1.1542   1.9583
     2.1409   3.4613   5.4490   5.6952

     occupation numbers 
     1.0000   1.0000   1.0000   1.0000   1.0000   1.0000   1.0000   1.0000
     1.0000   1.0000   1.0000   1.0000   1.0000   1.0000   1.0000   0.0000
     0.0000   0.0000   0.0000   0.0000

          k = 0.2222 0.5132 0.0000 ( 11723 PWs)   bands (ev):

   -28.9510 -28.8802 -28.8568 -28.8338 -28.8280 -28.8075 -28.7885 -28.7631
   -28.7422 -28.6966  -9.4710  -8.2033  -3.5437  -2.5491  -1.6677   1.5068
     2.7076   3.2649   5.6820   6.5625

     occupation numbers 
     1.0000   1.0000   1.0000   1.0000   1.0000   1.0000   1.0000   1.0000
     1.0000   1.0000   1.0000   1.0000   1.0000   1.0000   1.0000   0.0000
     0.0000   0.0000   0.0000   0.0000

          k = 0.3333 0.5773 0.0000 ( 11736 PWs)   bands (ev):

   -28.9509 -28.8594 -28.8594 -28.8487 -28.8099 -28.8099 -28.8058 -28.7527
   -28.7527 -28.6974  -8.8206  -8.8206  -3.8237  -2.1056  -2.1056   1.1828
     3.2258   3.2258   6.3060   6.9673

     occupation numbers 
     1.0000   1.0000   1.0000   1.0000   1.0000   1.0000   1.0000   1.0000
     1.0000   1.0000   1.0000   1.0000   1.0000   1.0000   1.0000   0.0000
     0.0000   0.0000   0.0000   0.0000

     highest occupied, lowest unoccupied level (ev):    -0.3649    0.9424

!    total energy              =    -282.12626743 Ry
     estimated scf accuracy    <          2.8E-09 Ry

     The total energy is the sum of the following terms:
     one-electron contribution =    -710.86322768 Ry
     hartree contribution      =     353.10506138 Ry
     xc contribution           =     -31.71902382 Ry
     ewald contribution        =     107.35092270 Ry

     convergence has been achieved in   9 iterations

     Forces acting on atoms (cartesian axes, Ry/au):

     atom    1 type  1   force =     0.00000000    0.00000000   -0.00001522
     atom    2 type  1   force =     0.00000000    0.00000000    0.00001522
     The non-local contrib.  to forces
     atom    1 type  1   force =     0.00000000   -0.00000000    0.56454471
     atom    2 type  1   force =    -0.00000000    0.00000000   -0.56454848
     The ionic contribution  to forces
     atom    1 type  1   force =    -0.00000001    0.00000001  -34.43885900
     atom    2 type  1   force =     0.00000001   -0.00000001   34.43885900
     The local contribution  to forces
     atom    1 type  1   force =     0.00000000   -0.00000000   33.87449864
     atom    2 type  1   force =     0.00000018   -0.00000010  -33.87450361
     The core correction contribution to forces
     atom    1 type  1   force =     0.00000000    0.00000000    0.00000000
     atom    2 type  1   force =     0.00000000    0.00000000    0.00000000
     The Hubbard contrib.    to forces
     atom    1 type  1   force =     0.00000000    0.00000000    0.00000000
     atom    2 type  1   force =     0.00000000    0.00000000    0.00000000
     The SCF correction term to forces
     atom    1 type  1   force =     0.00000000   -0.00000000   -0.00000000
     atom    2 type  1   force =    -0.00000000    0.00000000    0.00020720

     Total force =     0.000015     Total SCF correction =     0.000207
     SCF correction compared to forces is large: reduce conv_thr to get better values


     Computing stress (Cartesian axis) and pressure

          total   stress  (Ry/bohr**3)                   (kbar)     P=        0.05
   0.00000053   0.00000000   0.00000000            0.08        0.00        0.00
  -0.00000000   0.00000053   0.00000000           -0.00        0.08        0.00
   0.00000000   0.00000000   0.00000000            0.00        0.00        0.00

     kinetic stress (kbar)   8553.20      0.00      0.00
                               -0.00   8553.20     -0.00
                                0.00     -0.00   8583.84

     local   stress (kbar) -60062.83      0.00     -0.00
                                0.00 -60062.83      0.00
                               -0.00      0.00  58831.01

     nonloc. stress (kbar)  -2262.54      0.00      0.00
                                0.00  -2262.54      0.00
                                0.00      0.00  -2241.77

     hartree stress (kbar)  30662.92     -0.00      0.00
                               -0.00  30662.92     -0.00
                                0.00     -0.00 -26574.98

     exc-cor stress (kbar)   -981.03      0.00     -0.00
                                0.00   -981.03      0.00
                               -0.00      0.00   -982.32

     corecor stress (kbar)      0.00      0.00      0.00
                                0.00      0.00      0.00
                                0.00      0.00      0.00

     ewald   stress (kbar)  24090.36     -0.00      0.00
                               -0.00  24090.36     -0.00
                                0.00     -0.00 -37615.77

     hubbard stress (kbar)      0.00      0.00      0.00
                                0.00      0.00      0.00
                                0.00      0.00      0.00

     DFT-D   stress (kbar)      0.00      0.00      0.00
                                0.00      0.00      0.00
                                0.00      0.00      0.00

     XDM     stress (kbar)      0.00      0.00      0.00
                                0.00      0.00      0.00
                                0.00      0.00      0.00

     dft-nl  stress (kbar)      0.00      0.00      0.00
                                0.00      0.00      0.00
                                0.00      0.00      0.00

     TS-vdW  stress (kbar)      0.00      0.00      0.00
                                0.00      0.00      0.00
                                0.00      0.00      0.00


     Energy error            =      2.8E-08
     Gradient error          =      1.5E-05
     Cell gradient error     =      5.3E-07


     number of scf cycles    =   4
     number of bfgs steps    =   3

     enthalpy old            =    -282.1262674019 Ry
     enthalpy new            =    -282.1262674301 Ry

     CASE: enthalpy_new < enthalpy_old

     new trust radius        =       0.0002250000 bohr
     new conv_thr            =       0.0000000100 Ry

     new unit-cell volume =   1494.82868 a.u.^3 (   221.51076 Ang^3 )
     density =      0.18008 g/cm^3

CELL_PARAMETERS (alat=  7.80288704)
   1.000069108   0.000000000   0.000000000
  -0.500034554   0.866085253   0.000000000
   0.000000000   0.000000000   3.632744102

ATOMIC_POSITIONS (crystal)
Sb            0.0000000000        0.0000000000        0.5000000000    0   0   0
Sb            0.3333333330        0.6666666670        0.6089564237



     Writing output data file ./tmp/Sb.save/
     NEW-OLD atomic charge density approx. for the potential
     extrapolated charge   30.00174, renormalised to   30.00000

     total cpu time spent up to now is       30.3 secs

     Self-consistent Calculation

     iteration #  1     ecut=    60.00 Ry     beta= 0.70
     Davidson diagonalization with overlap
     ethr =  1.00E-06,  avg # of iterations =  1.2

     Threshold (ethr) on eigenvalues was too large:
     Diagonalizing with lowered threshold

     Davidson diagonalization with overlap
     ethr =  4.12E-09,  avg # of iterations =  1.0

     total cpu time spent up to now is       31.8 secs

     total energy              =    -282.12626573 Ry
     estimated scf accuracy    <       0.00000122 Ry

     iteration #  2     ecut=    60.00 Ry     beta= 0.70
     Davidson diagonalization with overlap
     ethr =  4.08E-09,  avg # of iterations =  3.2

     total cpu time spent up to now is       32.8 secs

     total energy              =    -282.12626735 Ry
     estimated scf accuracy    <       0.00000300 Ry

     iteration #  3     ecut=    60.00 Ry     beta= 0.70
     Davidson diagonalization with overlap
     ethr =  4.08E-09,  avg # of iterations =  2.0

     total cpu time spent up to now is       33.9 secs

     total energy              =    -282.12626752 Ry
     estimated scf accuracy    <       0.00000041 Ry

     iteration #  4     ecut=    60.00 Ry     beta= 0.70
     Davidson diagonalization with overlap
     ethr =  1.36E-09,  avg # of iterations =  1.9

     total cpu time spent up to now is       34.6 secs

     total energy              =    -282.12626752 Ry
     estimated scf accuracy    <       0.00000019 Ry

     iteration #  5     ecut=    60.00 Ry     beta= 0.70
     Davidson diagonalization with overlap
     ethr =  6.40E-10,  avg # of iterations =  1.1

     total cpu time spent up to now is       35.4 secs

     total energy              =    -282.12626749 Ry
     estimated scf accuracy    <       0.00000015 Ry

     iteration #  6     ecut=    60.00 Ry     beta= 0.70
     Davidson diagonalization with overlap
     ethr =  5.07E-10,  avg # of iterations =  1.2

     total cpu time spent up to now is       36.1 secs

     total energy              =    -282.12626748 Ry
     estimated scf accuracy    <       0.00000008 Ry

     iteration #  7     ecut=    60.00 Ry     beta= 0.70
     Davidson diagonalization with overlap
     ethr =  2.55E-10,  avg # of iterations =  1.0

     total cpu time spent up to now is       36.8 secs

     total energy              =    -282.12626747 Ry
     estimated scf accuracy    <       0.00000005 Ry

     iteration #  8     ecut=    60.00 Ry     beta= 0.70
     Davidson diagonalization with overlap
     ethr =  1.50E-10,  avg # of iterations =  1.8

     total cpu time spent up to now is       37.6 secs

     total energy              =    -282.12626746 Ry
     estimated scf accuracy    <       0.00000002 Ry

     iteration #  9     ecut=    60.00 Ry     beta= 0.70
     Davidson diagonalization with overlap
     ethr =  6.19E-11,  avg # of iterations =  2.0

     total cpu time spent up to now is       38.4 secs

     End of self-consistent calculation

          k = 0.0000 0.0000 0.0000 ( 11745 PWs)   bands (ev):

   -28.9567 -28.9567 -28.8855 -28.8855 -28.8212 -28.7745 -28.7745 -28.7225
   -28.6918 -28.6918 -11.6015  -6.6193  -0.9099  -0.3653  -0.3653   1.1863
     2.4236   2.4236   4.1238   4.1246

     occupation numbers 
     1.0000   1.0000   1.0000   1.0000   1.0000   1.0000   1.0000   1.0000
     1.0000   1.0000   1.0000   1.0000   1.0000   1.0000   1.0000   0.0000
     0.0000   0.0000   0.0000   0.0000

          k =-0.0000 0.1283 0.0000 ( 11769 PWs)   bands (ev):

   -28.9560 -28.9506 -28.8844 -28.8814 -28.8201 -28.7774 -28.7743 -28.7245
   -28.6986 -28.6921 -11.4713  -6.6236  -1.4386  -0.8591  -0.6432   1.7034
     2.4640   2.6862   4.2622   4.3069

     occupation numbers 
     1.0000   1.0000   1.0000   1.0000   1.0000   1.0000   1.0000   1.0000
     1.0000   1.0000   1.0000   1.0000   1.0000   1.0000   1.0000   0.0000
     0.0000   0.0000   0.0000   0.0000

          k =-0.0000 0.2566 0.0000 ( 11741 PWs)   bands (ev):

   -28.9541 -28.9339 -28.8809 -28.8701 -28.8166 -28.7859 -28.7741 -28.7321
   -28.7155 -28.6929 -11.0891  -6.7463  -2.7070  -1.1703  -0.8248   1.1179
     3.0642   3.1189   4.5571   4.7439

     occupation numbers 
     1.0000   1.0000   1.0000   1.0000   1.0000   1.0000   1.0000   1.0000
     1.0000   1.0000   1.0000   1.0000   1.0000   1.0000   1.0000   0.0000
     0.0000   0.0000   0.0000   0.0000

          k =-0.0000 0.3849 0.0000 ( 11722 PWs)   bands (ev):

   -28.9519 -28.9129 -28.8723 -28.8538 -28.8129 -28.7990 -28.7751 -28.7525
   -28.7282 -28.6940 -10.4920  -7.2401  -3.3084  -1.6184  -1.1511   0.9422
     2.7263   3.1940   5.0664   5.1961

     occupation numbers 
     1.0000   1.0000   1.0000   1.0000   1.0000   1.0000   1.0000   1.0000
     1.0000   1.0000   1.0000   1.0000   1.0000   1.0000   1.0000   0.0000
     0.0000   0.0000   0.0000   0.0000

          k =-0.0000 0.5132 0.0000 ( 11696 PWs)   bands (ev):

   -28.9503 -28.9012 -28.8515 -28.8354 -28.8193 -28.8153 -28.7779 -28.7711
   -28.7335 -28.6947  -9.8409  -7.9617  -3.2861  -1.8627  -1.6735   1.2091
     2.2078   3.1844   4.8347   6.1135

     occupation numbers 
     1.0000   1.0000   1.0000   1.0000   1.0000   1.0000   1.0000   1.0000
     1.0000   1.0000   1.0000   1.0000   1.0000   1.0000   1.0000   0.0000
     0.0000   0.0000   0.0000   0.0000

          k = 0.1111 0.1924 0.0000 ( 11733 PWs)   bands (ev):

   -28.9548 -28.9389 -28.8820 -28.8741 -28.8177 -28.7835 -28.7736 -28.7291
   -28.7107 -28.6928 -11.2147  -6.6847  -2.3245  -1.2948  -0.7922   1.8815
     2.2751   3.3013   4.5230   4.5823

     occupation numbers 
     1.0000   1.0000   1.0000   1.0000   1.0000   1.0000   1.0000   1.0000
     1.0000   1.0000   1.0000   1.0000   1.0000   1.0000   1.0000   0.0000
     0.0000   0.0000   0.0000   0.0000

          k = 0.1111 0.3207 0.0000 ( 11734 PWs)   bands (ev):

   -28.9530 -28.9185 -28.8768 -28.8609 -28.8132 -28.7954 -28.7726 -28.7438
   -28.7256 -28.6939 -10.7204  -6.9965  -3.0501  -2.0140  -0.8770   1.5076
     2.6749   3.2217   4.9121   5.0805

     occupation numbers 
     1.0000   1.0000   1.0000   1.0000   1.0000   1.0000   1.0000   1.0000
     1.0000   1.0000   1.0000   1.0000   1.0000   1.0000   1.0000   0.0000
     0.0000   0.0000   0.0000   0.0000

          k = 0.1111 0.4490 0.0000 ( 11726 PWs)   bands (ev):

   -28.9513 -28.8997 -28.8637 -28.8439 -28.8140 -28.8088 -28.7741 -28.7665
   -28.7338 -28.6951 -10.0579  -7.6667  -3.2857  -2.3341  -1.3405   1.5535
     2.4974   2.9532   5.1724   5.7590

     occupation numbers 
     1.0000   1.0000   1.0000   1.0000   1.0000   1.0000   1.0000   1.0000
     1.0000   1.0000   1.0000   1.0000   1.0000   1.0000   1.0000   0.0000
     0.0000   0.0000   0.0000   0.0000

          k = 0.1111 0.5773 0.0000 ( 11688 PWs)   bands (ev):

   -28.9505 -28.8941 -28.8422 -28.8367 -28.8237 -28.8181 -28.7817 -28.7700
   -28.7369 -28.6955  -9.5990  -8.1716  -3.2992  -2.2535  -1.7676   1.9501
     1.9821   2.9685   4.9378   6.8046

     occupation numbers 
     1.0000   1.0000   1.0000   1.0000   1.0000   1.0000   1.0000   1.0000
     1.0000   1.0000   1.0000   1.0000   1.0000   1.0000   1.0000   0.0000
     0.0000   0.0000   0.0000   0.0000

          k = 0.2222 0.3849 0.0000 ( 11734 PWs)   bands (ev):

   -28.9519 -28.8963 -28.8706 -28.8474 -28.8117 -28.8081 -28.7685 -28.7662
   -28.7348 -28.6955 -10.1411  -7.5226  -3.0036  -2.9636  -1.1544   1.9581
     2.1407   3.4608   5.4486   5.6949

     occupation numbers 
     1.0000   1.0000   1.0000   1.0000   1.0000   1.0000   1.0000   1.0000
     1.0000   1.0000   1.0000   1.0000   1.0000   1.0000   1.0000   0.0000
     0.0000   0.0000   0.0000   0.0000

          k = 0.2222 0.5132 0.0000 ( 11723 PWs)   bands (ev):

   -28.9511 -28.8803 -28.8569 -28.8339 -28.8282 -28.8077 -28.7887 -28.7633
   -28.7424 -28.6967  -9.4711  -8.2035  -3.5437  -2.5491  -1.6678   1.5066
     2.7073   3.2645   5.6817   6.5620

     occupation numbers 
     1.0000   1.0000   1.0000   1.0000   1.0000   1.0000   1.0000   1.0000
     1.0000   1.0000   1.0000   1.0000   1.0000   1.0000   1.0000   0.0000
     0.0000   0.0000   0.0000   0.0000

          k = 0.3333 0.5773 0.0000 ( 11736 PWs)   bands (ev):

   -28.9511 -28.8596 -28.8596 -28.8489 -28.8101 -28.8101 -28.8060 -28.7529
   -28.7528 -28.6975  -8.8207  -8.8207  -3.8237  -2.1057  -2.1057   1.1827
     3.2255   3.2255   6.3057   6.9668

     occupation numbers 
     1.0000   1.0000   1.0000   1.0000   1.0000   1.0000   1.0000   1.0000
     1.0000   1.0000   1.0000   1.0000   1.0000   1.0000   1.0000   0.0000
     0.0000   0.0000   0.0000   0.0000

     highest occupied, lowest unoccupied level (ev):    -0.3653    0.9422

!    total energy              =    -282.12626746 Ry
     estimated scf accuracy    <          1.4E-09 Ry

     The total energy is the sum of the following terms:
     one-electron contribution =    -710.83596685 Ry
     hartree contribution      =     353.09101351 Ry
     xc contribution           =     -31.71896019 Ry
     ewald contribution        =     107.33764607 Ry

     convergence has been achieved in   9 iterations

     Forces acting on atoms (cartesian axes, Ry/au):

     atom    1 type  1   force =    -0.00000000    0.00000000   -0.00000387
     atom    2 type  1   force =    -0.00000000    0.00000000    0.00000387
     The non-local contrib.  to forces
     atom    1 type  1   force =     0.00000000   -0.00000000    0.56452892
     atom    2 type  1   force =    -0.00000000    0.00000000   -0.56453322
     The ionic contribution  to forces
     atom    1 type  1   force =    -0.00000001    0.00000001  -34.43624551
     atom    2 type  1   force =     0.00000001   -0.00000001   34.43624551
     The local contribution  to forces
     atom    1 type  1   force =    -0.00000000   -0.00000000   33.87185333
     atom    2 type  1   force =     0.00000018   -0.00000010  -33.87185678
     The core correction contribution to forces
     atom    1 type  1   force =     0.00000000    0.00000000    0.00000000
     atom    2 type  1   force =     0.00000000    0.00000000    0.00000000
     The Hubbard contrib.    to forces
     atom    1 type  1   force =     0.00000000    0.00000000    0.00000000
     atom    2 type  1   force =     0.00000000    0.00000000    0.00000000
     The SCF correction term to forces
     atom    1 type  1   force =     0.00000000   -0.00000000   -0.00000000
     atom    2 type  1   force =    -0.00000000    0.00000000    0.00014709

     Total force =     0.000004     Total SCF correction =     0.000147
     SCF correction compared to forces is large: reduce conv_thr to get better values


     Computing stress (Cartesian axis) and pressure

          total   stress  (Ry/bohr**3)                   (kbar)     P=        0.04
   0.00000045   0.00000000   0.00000000            0.07        0.00        0.00
  -0.00000000   0.00000045   0.00000000           -0.00        0.07        0.00
   0.00000000   0.00000000  -0.00000008            0.00        0.00       -0.01

     kinetic stress (kbar)   8552.69     -0.00     -0.00
                               -0.00   8552.69      0.00
                                0.00      0.00   8583.34

     local   stress (kbar) -60056.19      0.00     -0.00
                                0.00 -60056.19      0.00
                               -0.00      0.00  58823.98

     nonloc. stress (kbar)  -2262.41      0.00      0.00
                                0.00  -2262.41      0.00
                                0.00      0.00  -2241.65

     hartree stress (kbar)  30659.58     -0.00     -0.00
                               -0.00  30659.58     -0.00
                               -0.00     -0.00 -26571.72

     exc-cor stress (kbar)   -980.97      0.00     -0.00
                                0.00   -980.97     -0.00
                               -0.00     -0.00   -982.26

     corecor stress (kbar)      0.00      0.00      0.00
                                0.00      0.00      0.00
                                0.00      0.00      0.00

     ewald   stress (kbar)  24087.37     -0.00      0.00
                               -0.00  24087.37     -0.00
                                0.00     -0.00 -37611.71

     hubbard stress (kbar)      0.00      0.00      0.00
                                0.00      0.00      0.00
                                0.00      0.00      0.00

     DFT-D   stress (kbar)      0.00      0.00      0.00
                                0.00      0.00      0.00
                                0.00      0.00      0.00

     XDM     stress (kbar)      0.00      0.00      0.00
                                0.00      0.00      0.00
                                0.00      0.00      0.00

     dft-nl  stress (kbar)      0.00      0.00      0.00
                                0.00      0.00      0.00
                                0.00      0.00      0.00

     TS-vdW  stress (kbar)      0.00      0.00      0.00
                                0.00      0.00      0.00
                                0.00      0.00      0.00


     Energy error            =      3.4E-08
     Gradient error          =      3.9E-06
     Cell gradient error     =      4.5E-07


     number of scf cycles    =   5
     number of bfgs steps    =   4

     enthalpy old            =    -282.1262674301 Ry
     enthalpy new            =    -282.1262674640 Ry

     CASE: enthalpy_new < enthalpy_old

     new trust radius        =       0.0003375000 bohr
     new conv_thr            =       0.0000000100 Ry

     new unit-cell volume =   1494.95917 a.u.^3 (   221.53009 Ang^3 )
     density =      0.18006 g/cm^3

CELL_PARAMETERS (alat=  7.80288704)
   1.000112757  -0.000000000   0.000000000
  -0.500056379   0.866123054   0.000000000
   0.000000000   0.000000000   3.632744102

ATOMIC_POSITIONS (crystal)
Sb            0.0000000000        0.0000000000        0.5000000000    0   0   0
Sb            0.3333333330        0.6666666670        0.6089546745



     Writing output data file ./tmp/Sb.save/
     NEW-OLD atomic charge density approx. for the potential
     extrapolated charge   30.00261, renormalised to   30.00000

     total cpu time spent up to now is       39.1 secs

     Self-consistent Calculation

     iteration #  1     ecut=    60.00 Ry     beta= 0.70
     Davidson diagonalization with overlap
     ethr =  1.00E-06,  avg # of iterations =  1.2

     Threshold (ethr) on eigenvalues was too large:
     Diagonalizing with lowered threshold

     Davidson diagonalization with overlap
     ethr =  8.75E-09,  avg # of iterations =  1.0

     total cpu time spent up to now is       40.5 secs

     total energy              =    -282.12626370 Ry
     estimated scf accuracy    <       0.00000258 Ry

     iteration #  2     ecut=    60.00 Ry     beta= 0.70
     Davidson diagonalization with overlap
     ethr =  8.60E-09,  avg # of iterations =  3.2

     total cpu time spent up to now is       41.6 secs

     total energy              =    -282.12626727 Ry
     estimated scf accuracy    <       0.00000656 Ry

     iteration #  3     ecut=    60.00 Ry     beta= 0.70
     Davidson diagonalization with overlap
     ethr =  8.60E-09,  avg # of iterations =  2.0

     total cpu time spent up to now is       42.4 secs

     total energy              =    -282.12626763 Ry
     estimated scf accuracy    <       0.00000093 Ry

     iteration #  4     ecut=    60.00 Ry     beta= 0.70
     Davidson diagonalization with overlap
     ethr =  3.09E-09,  avg # of iterations =  1.8

[...]

   Crystallographic axes

     site n.     atom                  positions (cryst. coord.)
         1           Sb  tau(   1) = (  0.0000000  0.0000000  0.5000000  )
         2           Sb  tau(   2) = (  0.3333333  0.6666667  0.6089430  )

     number of k points=    12
                       cart. coord. in units 2pi/alat
        k(    1) = (   0.0000000   0.0000000   0.0000000), wk =   0.0246914
        k(    2) = (   0.0000000   0.1282646   0.0000000), wk =   0.1481481
        k(    3) = (   0.0000000   0.2565293   0.0000000), wk =   0.1481481
        k(    4) = (   0.0000000   0.3847939   0.0000000), wk =   0.1481481
        k(    5) = (   0.0000000   0.5130585   0.0000000), wk =   0.1481481
        k(    6) = (   0.1110804   0.1923970   0.0000000), wk =   0.1481481
        k(    7) = (   0.1110804   0.3206616   0.0000000), wk =   0.2962963
        k(    8) = (   0.1110804   0.4489262   0.0000000), wk =   0.2962963
        k(    9) = (   0.1110804   0.5771909   0.0000000), wk =   0.1481481
        k(   10) = (   0.2221609   0.3847939   0.0000000), wk =   0.1481481
        k(   11) = (   0.2221609   0.5130585   0.0000000), wk =   0.2962963
        k(   12) = (   0.3332413   0.5771909   0.0000000), wk =   0.0493827

                       cryst. coord.
        k(    1) = (   0.0000000   0.0000000   0.0000000), wk =   0.0246914
        k(    2) = (   0.0000000   0.1111111   0.0000000), wk =   0.1481481
        k(    3) = (   0.0000000   0.2222222   0.0000000), wk =   0.1481481
        k(    4) = (   0.0000000   0.3333333   0.0000000), wk =   0.1481481
        k(    5) = (   0.0000000   0.4444444   0.0000000), wk =   0.1481481
        k(    6) = (   0.1111111   0.1111111   0.0000000), wk =   0.1481481
        k(    7) = (   0.1111111   0.2222222   0.0000000), wk =   0.2962963
        k(    8) = (   0.1111111   0.3333333   0.0000000), wk =   0.2962963
        k(    9) = (   0.1111111   0.4444444   0.0000000), wk =   0.1481481
        k(   10) = (   0.2222222   0.2222222   0.0000000), wk =   0.1481481
        k(   11) = (   0.2222222   0.3333333   0.0000000), wk =   0.2962963
        k(   12) = (   0.3333333   0.3333333   0.0000000), wk =   0.0493827

     Dense  grid:    94033 G-vectors     FFT dimensions: (  40,  40, 144)

     Dynamical RAM for                 wfc:       0.90 MB

     Dynamical RAM for     wfc (w. buffer):      11.64 MB

     Dynamical RAM for           str. fact:       0.36 MB

     Dynamical RAM for           local pot:       0.18 MB

     Dynamical RAM for          nlocal pot:       1.61 MB

     Dynamical RAM for                qrad:       2.49 MB

     Dynamical RAM for          rho,v,vnew:       2.39 MB

     Dynamical RAM for               rhoin:       0.80 MB

     Dynamical RAM for            rho*nmix:       5.74 MB

     Dynamical RAM for           G-vectors:       1.52 MB

     Dynamical RAM for          h,s,v(r/c):       0.07 MB

     Dynamical RAM for          <psi|beta>:       0.01 MB

     Dynamical RAM for                 psi:       1.79 MB

     Dynamical RAM for                hpsi:       1.79 MB

     Dynamical RAM for      wfcinit/wfcrot:       1.80 MB

     Estimated static dynamical RAM per process >      29.65 MB

     Estimated max dynamical RAM per process >      33.31 MB

     Estimated total dynamical RAM >     133.26 MB

     Initial potential from superposition of free atoms

     starting charge   29.88029, renormalised to   30.00000

     negative rho (up, down):  4.916E-04 0.000E+00
     Starting wfcs are random

     total cpu time spent up to now is      111.8 secs

     Self-consistent Calculation

     iteration #  1     ecut=    60.00 Ry     beta= 0.70
     Davidson diagonalization with overlap
     c_bands:  1 eigenvalues not converged
     c_bands:  1 eigenvalues not converged
     c_bands:  2 eigenvalues not converged
     c_bands:  2 eigenvalues not converged
     c_bands:  2 eigenvalues not converged
     c_bands:  3 eigenvalues not converged
     c_bands:  2 eigenvalues not converged
     c_bands:  2 eigenvalues not converged
     c_bands:  1 eigenvalues not converged
     c_bands:  2 eigenvalues not converged
     c_bands:  2 eigenvalues not converged
     c_bands:  2 eigenvalues not converged
     ethr =  1.00E-06,  avg # of iterations = 20.0

     negative rho (up, down):  9.302E-06 0.000E+00

     total cpu time spent up to now is      117.5 secs

     total energy              =    -282.12294473 Ry
     estimated scf accuracy    <       0.02030097 Ry

     iteration #  2     ecut=    60.00 Ry     beta= 0.70
     Davidson diagonalization with overlap
     ethr =  6.77E-05,  avg # of iterations =  2.0

     negative rho (up, down):  1.369E-06 0.000E+00

     total cpu time spent up to now is      118.5 secs

     total energy              =    -282.12509568 Ry
     estimated scf accuracy    <       0.00369418 Ry

     iteration #  3     ecut=    60.00 Ry     beta= 0.70
     Davidson diagonalization with overlap
     ethr =  1.23E-05,  avg # of iterations =  5.8

     total cpu time spent up to now is      119.8 secs

     total energy              =    -282.12613157 Ry
     estimated scf accuracy    <       0.00075743 Ry

     iteration #  4     ecut=    60.00 Ry     beta= 0.70
     Davidson diagonalization with overlap
     ethr =  2.52E-06,  avg # of iterations =  2.8

     total cpu time spent up to now is      120.8 secs

     total energy              =    -282.12626621 Ry
     estimated scf accuracy    <       0.00000572 Ry

     iteration #  5     ecut=    60.00 Ry     beta= 0.70
     Davidson diagonalization with overlap
     ethr =  1.91E-08,  avg # of iterations =  3.6

     total cpu time spent up to now is      121.9 secs

     total energy              =    -282.12626752 Ry
     estimated scf accuracy    <       0.00000089 Ry

     iteration #  6     ecut=    60.00 Ry     beta= 0.70
     Davidson diagonalization with overlap
     ethr =  2.96E-09,  avg # of iterations =  2.5

     total cpu time spent up to now is      122.8 secs

     total energy              =    -282.12626753 Ry
     estimated scf accuracy    <       0.00000208 Ry

     iteration #  7     ecut=    60.00 Ry     beta= 0.70
     Davidson diagonalization with overlap
     ethr =  2.96E-09,  avg # of iterations =  1.9

     total cpu time spent up to now is      123.8 secs

     total energy              =    -282.12626777 Ry
     estimated scf accuracy    <       0.00000002 Ry

     iteration #  8     ecut=    60.00 Ry     beta= 0.70
     Davidson diagonalization with overlap
     ethr =  6.43E-11,  avg # of iterations =  2.8

     total cpu time spent up to now is      124.9 secs

     End of self-consistent calculation

          k = 0.0000 0.0000 0.0000 ( 11745 PWs)   bands (ev):

   -28.9582 -28.9582 -28.8872 -28.8872 -28.8229 -28.7763 -28.7763 -28.7242
   -28.6936 -28.6936 -11.6011  -6.6204  -0.9103  -0.3688  -0.3688   1.1815
     2.4201   2.4201   4.1224   4.1228

     occupation numbers 
     1.0000   1.0000   1.0000   1.0000   1.0000   1.0000   1.0000   1.0000
     1.0000   1.0000   1.0000   1.0000   1.0000   1.0000   1.0000   0.0000
     0.0000   0.0000   0.0000   0.0000

          k = 0.0000 0.1283 0.0000 ( 11787 PWs)   bands (ev):

   -28.9576 -28.9522 -28.8861 -28.8831 -28.8217 -28.7792 -28.7761 -28.7263
   -28.7004 -28.6939 -11.4710  -6.6249  -1.4412  -0.8597  -0.6465   1.6996
     2.4598   2.6825   4.2605   4.3051

     occupation numbers 
     1.0000   1.0000   1.0000   1.0000   1.0000   1.0000   1.0000   1.0000
     1.0000   1.0000   1.0000   1.0000   1.0000   1.0000   1.0000   0.0000
     0.0000   0.0000   0.0000   0.0000

          k = 0.0000 0.2565 0.0000 ( 11741 PWs)   bands (ev):

   -28.9557 -28.9355 -28.8826 -28.8718 -28.8183 -28.7876 -28.7759 -28.7339
   -28.7173 -28.6948 -11.0890  -6.7481  -2.7083  -1.1731  -0.8259   1.1154
     3.0606   3.1152   4.5554   4.7419

     occupation numbers 
     1.0000   1.0000   1.0000   1.0000   1.0000   1.0000   1.0000   1.0000
     1.0000   1.0000   1.0000   1.0000   1.0000   1.0000   1.0000   0.0000
     0.0000   0.0000   0.0000   0.0000

          k = 0.0000 0.3848 0.0000 ( 11726 PWs)   bands (ev):

   -28.9535 -28.9146 -28.8739 -28.8555 -28.8146 -28.8007 -28.7769 -28.7543
   -28.7299 -28.6958 -10.4924  -7.2422  -3.3088  -1.6209  -1.1525   0.9404
     2.7240   3.1909   5.0644   5.1941

     occupation numbers 
     1.0000   1.0000   1.0000   1.0000   1.0000   1.0000   1.0000   1.0000
     1.0000   1.0000   1.0000   1.0000   1.0000   1.0000   1.0000   0.0000
     0.0000   0.0000   0.0000   0.0000

          k = 0.0000 0.5131 0.0000 ( 11702 PWs)   bands (ev):

   -28.9519 -28.9028 -28.8531 -28.8371 -28.8210 -28.8171 -28.7796 -28.7729
   -28.7353 -28.6965  -9.8417  -7.9634  -3.2866  -1.8650  -1.6744   1.2068
     2.2065   3.1816   4.8333   6.1117

     occupation numbers 
     1.0000   1.0000   1.0000   1.0000   1.0000   1.0000   1.0000   1.0000
     1.0000   1.0000   1.0000   1.0000   1.0000   1.0000   1.0000   0.0000
     0.0000   0.0000   0.0000   0.0000

          k = 0.1111 0.1924 0.0000 ( 11739 PWs)   bands (ev):

   -28.9564 -28.9405 -28.8837 -28.8758 -28.8193 -28.7853 -28.7754 -28.7309
   -28.7124 -28.6946 -11.2146  -6.6864  -2.3262  -1.2974  -0.7931   1.8787
     2.2711   3.2975   4.5210   4.5804

     occupation numbers 
     1.0000   1.0000   1.0000   1.0000   1.0000   1.0000   1.0000   1.0000
     1.0000   1.0000   1.0000   1.0000   1.0000   1.0000   1.0000   0.0000
     0.0000   0.0000   0.0000   0.0000

          k = 0.1111 0.3207 0.0000 ( 11736 PWs)   bands (ev):

   -28.9546 -28.9202 -28.8785 -28.8626 -28.8149 -28.7971 -28.7744 -28.7456
   -28.7273 -28.6958 -10.7206  -6.9987  -3.0508  -2.0159  -0.8784   1.5054
     2.6720   3.2184   4.9102   5.0784

     occupation numbers 
     1.0000   1.0000   1.0000   1.0000   1.0000   1.0000   1.0000   1.0000
     1.0000   1.0000   1.0000   1.0000   1.0000   1.0000   1.0000   0.0000
     0.0000   0.0000   0.0000   0.0000

          k = 0.1111 0.4489 0.0000 ( 11730 PWs)   bands (ev):

   -28.9529 -28.9014 -28.8654 -28.8456 -28.8157 -28.8105 -28.7758 -28.7682
   -28.7355 -28.6969 -10.0586  -7.6687  -3.2862  -2.3357  -1.3419   1.5517
     2.4950   2.9506   5.1704   5.7569

     occupation numbers 
     1.0000   1.0000   1.0000   1.0000   1.0000   1.0000   1.0000   1.0000
     1.0000   1.0000   1.0000   1.0000   1.0000   1.0000   1.0000   0.0000
     0.0000   0.0000   0.0000   0.0000

          k = 0.1111 0.5772 0.0000 ( 11692 PWs)   bands (ev):

   -28.9521 -28.8958 -28.8439 -28.8385 -28.8254 -28.8199 -28.7835 -28.7717
   -28.7386 -28.6974  -9.6000  -8.1732  -3.3000  -2.2551  -1.7685   1.9490
     1.9791   2.9663   4.9363   6.8059

     occupation numbers 
     1.0000   1.0000   1.0000   1.0000   1.0000   1.0000   1.0000   1.0000
     1.0000   1.0000   1.0000   1.0000   1.0000   1.0000   1.0000   0.0000
     0.0000   0.0000   0.0000   0.0000

          k = 0.2222 0.3848 0.0000 ( 11734 PWs)   bands (ev):

   -28.9535 -28.8980 -28.8723 -28.8491 -28.8134 -28.8098 -28.7702 -28.7679
   -28.7365 -28.6974 -10.1417  -7.5247  -3.0048  -2.9641  -1.1559   1.9565
     2.1390   3.4569   5.4455   5.6930

     occupation numbers 
     1.0000   1.0000   1.0000   1.0000   1.0000   1.0000   1.0000   1.0000
     1.0000   1.0000   1.0000   1.0000   1.0000   1.0000   1.0000   0.0000
     0.0000   0.0000   0.0000   0.0000

          k = 0.2222 0.5131 0.0000 ( 11733 PWs)   bands (ev):

   -28.9527 -28.8820 -28.8586 -28.8357 -28.8299 -28.8095 -28.7904 -28.7650
   -28.7441 -28.6986  -9.4722  -8.2053  -3.5444  -2.5500  -1.6691   1.5057
     2.7053   3.2614   5.6789   6.5593

     occupation numbers 
     1.0000   1.0000   1.0000   1.0000   1.0000   1.0000   1.0000   1.0000
     1.0000   1.0000   1.0000   1.0000   1.0000   1.0000   1.0000   0.0000
     0.0000   0.0000   0.0000   0.0000

          k = 0.3332 0.5772 0.0000 ( 11736 PWs)   bands (ev):

   -28.9527 -28.8613 -28.8613 -28.8505 -28.8118 -28.8118 -28.8077 -28.7546
   -28.7546 -28.6994  -8.8222  -8.8222  -3.8242  -2.1068  -2.1068   1.1821
     3.2232   3.2232   6.3036   6.9624

     occupation numbers 
     1.0000   1.0000   1.0000   1.0000   1.0000   1.0000   1.0000   1.0000
     1.0000   1.0000   1.0000   1.0000   1.0000   1.0000   1.0000   0.0000
     0.0000   0.0000   0.0000   0.0000

     highest occupied, lowest unoccupied level (ev):    -0.3688    0.9404

!    total energy              =    -282.12626778 Ry
     estimated scf accuracy    <          5.9E-10 Ry

     The total energy is the sum of the following terms:
     one-electron contribution =    -710.65503380 Ry
     hartree contribution      =     352.99797105 Ry
     xc contribution           =     -31.71860087 Ry
     ewald contribution        =     107.24939585 Ry

     convergence has been achieved in   8 iterations

     Forces acting on atoms (cartesian axes, Ry/au):

     atom    1 type  1   force =     0.00000000    0.00000000    0.00002336
     atom    2 type  1   force =    -0.00000000   -0.00000000   -0.00002336
     The non-local contrib.  to forces
     atom    1 type  1   force =    -0.00000000   -0.00000000    0.56446513
     atom    2 type  1   force =     0.00000000    0.00000000   -0.56444790
     The ionic contribution  to forces
     atom    1 type  1   force =    -0.00000001    0.00000001  -34.41724170
     atom    2 type  1   force =     0.00000001   -0.00000001   34.41724170
     The local contribution  to forces
     atom    1 type  1   force =     0.00000000   -0.00000000   33.85263674
     atom    2 type  1   force =     0.00000018   -0.00000010  -33.85279603
     The core correction contribution to forces
     atom    1 type  1   force =     0.00000000    0.00000000    0.00000000
     atom    2 type  1   force =     0.00000000    0.00000000    0.00000000
     The Hubbard contrib.    to forces
     atom    1 type  1   force =     0.00000000    0.00000000    0.00000000
     atom    2 type  1   force =     0.00000000    0.00000000    0.00000000
     The SCF correction term to forces
     atom    1 type  1   force =    -0.00000000    0.00000000    0.00000000
     atom    2 type  1   force =     0.00000000   -0.00000000   -0.00001315

     Total force =     0.000023     Total SCF correction =     0.000013
     SCF correction compared to forces is large: reduce conv_thr to get better values


     Computing stress (Cartesian axis) and pressure

          total   stress  (Ry/bohr**3)                   (kbar)     P=       -0.02
  -0.00000002   0.00000000   0.00000000           -0.00        0.00        0.00
   0.00000000  -0.00000002   0.00000000            0.00       -0.00        0.00
  -0.00000000  -0.00000000  -0.00000036           -0.00       -0.00       -0.05

     kinetic stress (kbar)   8549.08      0.00     -0.00
                               -0.00   8549.08     -0.00
                               -0.00     -0.00   8579.77

     local   stress (kbar) -60010.49      0.00     -0.00
                                0.00 -60010.49      0.00
                               -0.00      0.00  58775.78

     nonloc. stress (kbar)  -2261.50      0.00      0.00
                                0.00  -2261.50      0.00
                                0.00      0.00  -2240.73

     hartree stress (kbar)  30636.60     -0.00      0.00
                               -0.00  30636.60     -0.00
                                0.00     -0.00 -26549.29

     exc-cor stress (kbar)   -980.55     -0.00     -0.00
                               -0.00   -980.55      0.00
                               -0.00      0.00   -981.84

     corecor stress (kbar)      0.00      0.00      0.00
                                0.00      0.00      0.00
                                0.00      0.00      0.00

     ewald   stress (kbar)  24066.85     -0.00      0.00
                               -0.00  24066.85     -0.00
                                0.00     -0.00 -37583.74

     hubbard stress (kbar)      0.00      0.00      0.00
                                0.00      0.00      0.00
                                0.00      0.00      0.00

     DFT-D   stress (kbar)      0.00      0.00      0.00
                                0.00      0.00      0.00
                                0.00      0.00      0.00

     XDM     stress (kbar)      0.00      0.00      0.00
                                0.00      0.00      0.00
                                0.00      0.00      0.00

     dft-nl  stress (kbar)      0.00      0.00      0.00
                                0.00      0.00      0.00
                                0.00      0.00      0.00

     TS-vdW  stress (kbar)      0.00      0.00      0.00
                                0.00      0.00      0.00
                                0.00      0.00      0.00



     Writing output data file ./tmp/Sb.save/

     init_run     :      0.95s CPU      0.99s WALL (       2 calls)
     electrons    :    107.61s CPU    114.35s WALL (      14 calls)
     update_pot   :      2.81s CPU      2.86s WALL (      12 calls)
     forces       :      1.80s CPU      1.96s WALL (      14 calls)
     stress       :      4.60s CPU      5.12s WALL (      14 calls)

     Called by init_run:
     wfcinit      :      0.57s CPU      0.59s WALL (       2 calls)
     wfcinit:atom :      0.00s CPU      0.00s WALL (      24 calls)
     wfcinit:wfcr :      0.52s CPU      0.54s WALL (      24 calls)
     potinit      :      0.19s CPU      0.21s WALL (       2 calls)
     hinit0       :      0.16s CPU      0.16s WALL (       2 calls)

     Called by electrons:
     c_bands      :     89.35s CPU     95.52s WALL (     124 calls)
     sum_band     :     16.31s CPU     16.69s WALL (     124 calls)
     v_of_rho     :      1.82s CPU      1.96s WALL (     125 calls)
     v_h          :      0.13s CPU      0.14s WALL (     125 calls)
     v_xc         :      1.69s CPU      1.82s WALL (     125 calls)
     mix_rho      :      0.25s CPU      0.30s WALL (     124 calls)

     Called by c_bands:
     init_us_2    :      1.23s CPU      1.43s WALL (    3336 calls)
     cegterg      :     86.46s CPU     92.46s WALL (    1488 calls)

     Called by sum_band:
     sum_band:wei :      0.00s CPU      0.00s WALL (     124 calls)
     sum_band:loo :     16.03s CPU     16.39s WALL (     124 calls)
     sum_band:buf :      0.11s CPU      0.11s WALL (    1488 calls)
     sum_band:ini :      0.55s CPU      0.63s WALL (    1488 calls)

     Called by *egterg:
     cdiaghg      :      1.20s CPU      1.38s WALL (    4368 calls)
     cegterg:over :      4.56s CPU      5.50s WALL (    3180 calls)
     cegterg:upda :      2.06s CPU      2.68s WALL (    3180 calls)
     cegterg:last :      2.67s CPU      3.18s WALL (    2734 calls)
     h_psi        :     73.85s CPU     76.96s WALL (    4692 calls)
     g_psi        :      0.17s CPU      0.17s WALL (    3180 calls)

     Called by h_psi:
     h_psi:calbec :      3.86s CPU      4.55s WALL (    4692 calls)
     vloc_psi     :     67.13s CPU     68.67s WALL (    4692 calls)
     add_vuspsi   :      2.59s CPU      3.34s WALL (    4692 calls)

     General routines
     calbec       :      4.57s CPU      5.42s WALL (    5532 calls)
     fft          :      1.61s CPU      1.66s WALL (    1373 calls)
     ffts         :      0.08s CPU      0.08s WALL (     124 calls)
     fftw         :     77.13s CPU     78.84s WALL (  174326 calls)

     Parallel routines
     fft_scatt_xy :      7.03s CPU      7.24s WALL (  175823 calls)
     fft_scatt_yz :      9.14s CPU      9.72s WALL (  175823 calls)

     PWSCF        :   1m57.85s CPU   2m 5.43s WALL


   This run was terminated on:  19:47:23  30Apr2026            

=------------------------------------------------------------------------------=
   JOB DONE.
=------------------------------------------------------------------------------=
Note: The following floating-point exceptions are signalling: IEEE_INVALID_FLAG IEEE_DIVIDE_BY_ZERO IEEE_UNDERFLOW_FLAG
