
     Program PWSCF v.6.7MaX starts on 30Apr2026 at 19:52:16 

     This program is part of the open-source Quantum ESPRESSO suite
     for quantum simulation of materials; please cite
         "P. Giannozzi et al., J. Phys.:Condens. Matter 21 395502 (2009);
         "P. Giannozzi et al., J. Phys.:Condens. Matter 29 465901 (2017);
          URL http://www.quantum-espresso.org", 
     in publications or presentations arising from this work. More details at
     http://www.quantum-espresso.org/quote

     Parallel version (MPI & OpenMP), running on       4 processor cores
     Number of MPI processes:                 4
     Threads/MPI process:                     1

     MPI processes distributed on     1 nodes
     R & G space division:  proc/nbgrp/npool/nimage =       4
     Waiting for input...
     Reading input from standard input

     Current dimensions of program PWSCF are:
     Max number of different atomic species (ntypx) = 10
     Max number of k-points (npk) =  40000
     Max angular momentum in pseudopotentials (lmaxx) =  3
     Message from routine read_pp_mesh:
     mesh size missing, using the one in header

     Subspace diagonalization in iterative solution of the eigenvalue problem:
     a serial algorithm will be used


     Parallelization info
     --------------------
     sticks:   dense  smooth     PW     G-vecs:    dense   smooth      PW
     Min         253     253     73                23505    23505    3589
     Max         255     255     75                23511    23511    3592
     Sum        1015    1015    295                94033    94033   14361



     bravais-lattice index     =            4
     lattice parameter (alat)  =       7.8050  a.u.
     unit-cell volume          =    1495.4461 (a.u.)^3
     number of atoms/cell      =            2
     number of atomic types    =            1
     number of electrons       =        30.00
     number of Kohn-Sham states=           20
     kinetic-energy cutoff     =      60.0000  Ry
     charge density cutoff     =     240.0000  Ry
     scf convergence threshold =      1.0E-06
     mixing beta               =       0.7000
     number of iterations used =            8  plain     mixing
     energy convergence thresh.=      1.0E-04
     force convergence thresh. =      1.0E-03
     press convergence thresh. =      1.0E-03
     Exchange-correlation= PBE
                           (   1   4   3   4   0   0   0)
     nstep                     =           50


     celldm(1)=   7.805038  celldm(2)=   0.000000  celldm(3)=   3.631743
     celldm(4)=   0.000000  celldm(5)=   0.000000  celldm(6)=   0.000000

     crystal axes: (cart. coord. in units of alat)
               a(1) = (   1.000000   0.000000   0.000000 )  
               a(2) = (  -0.500000   0.866025   0.000000 )  
               a(3) = (   0.000000   0.000000   3.631743 )  

     reciprocal axes: (cart. coord. in units 2 pi/alat)
               b(1) = (  1.000000  0.577350 -0.000000 )  
               b(2) = (  0.000000  1.154701  0.000000 )  
               b(3) = (  0.000000 -0.000000  0.275350 )  


     PseudoPot. # 1 for Sb read from file:
     /Users/cdhogan/Research/Codes/espresso/PSEUDO/SG15-1.2/Sb_ONCV_PBE-1.2.upf
     MD5 check sum: 0417cd6c0fe8ce4611e2b23135f1abd9
     Pseudo is Norm-conserving, Zval = 15.0
     Generated using ONCVPSP code by D. R. Hamann
     Using radial grid of  602 points,  6 beta functions with: 
                l(1) =   0
                l(2) =   0
                l(3) =   1
                l(4) =   1
                l(5) =   2
                l(6) =   2

     atomic species   valence    mass     pseudopotential
        Sb            15.00    12.01100     Sb( 1.00)

      6 Sym. Ops. (no inversion) found


                                    s                        frac. trans.

      isym =  1     identity                                     

 cryst.   s( 1) = (     1          0          0      )
                  (     0          1          0      )
                  (     0          0          1      )

 cart.    s( 1) = (  1.0000000  0.0000000  0.0000000 )
                  (  0.0000000  1.0000000  0.0000000 )
                  (  0.0000000  0.0000000  1.0000000 )


      isym =  2     120 deg rotation - cryst. axis [0,0,1]       

 cryst.   s( 2) = (     0          1          0      )
                  (    -1         -1          0      )
                  (     0          0          1      )

 cart.    s( 2) = ( -0.5000000 -0.8660254  0.0000000 )
                  (  0.8660254 -0.5000000  0.0000000 )
                  (  0.0000000  0.0000000  1.0000000 )


      isym =  3     120 deg rotation - cryst. axis [0,0,-1]      

 cryst.   s( 3) = (    -1         -1          0      )
                  (     1          0          0      )
                  (     0          0          1      )

 cart.    s( 3) = ( -0.5000000  0.8660254  0.0000000 )
                  ( -0.8660254 -0.5000000  0.0000000 )
                  (  0.0000000  0.0000000  1.0000000 )


      isym =  4     inv. 180 deg rotation - cart. axis [1,0,0]   

 cryst.   s( 4) = (    -1          0          0      )
                  (     1          1          0      )
                  (     0          0          1      )

 cart.    s( 4) = ( -1.0000000  0.0000000  0.0000000 )
                  (  0.0000000  1.0000000  0.0000000 )
                  (  0.0000000  0.0000000  1.0000000 )


      isym =  5     inv. 180 deg rotation - cryst. axis [0,1,0]  

 cryst.   s( 5) = (     1          1          0      )
                  (     0         -1          0      )
                  (     0          0          1      )

 cart.    s( 5) = (  0.5000000  0.8660254  0.0000000 )
                  (  0.8660254 -0.5000000  0.0000000 )
                  (  0.0000000  0.0000000  1.0000000 )


      isym =  6     inv. 180 deg rotation - cryst. axis [1,1,0]  

 cryst.   s( 6) = (     0         -1          0      )
                  (    -1          0          0      )
                  (     0          0          1      )

 cart.    s( 6) = (  0.5000000 -0.8660254  0.0000000 )
                  ( -0.8660254 -0.5000000  0.0000000 )
                  (  0.0000000  0.0000000  1.0000000 )


     point group C_3v (3m)  
     there are  3 classes
     the character table:

       E     2C3   3s_v 
A_1    1.00  1.00  1.00
A_2    1.00  1.00 -1.00
E      2.00 -1.00  0.00

     the symmetry operations in each class and the name of the first element:

     E        1
          identity                                               
     2C3      2    3
          120 deg rotation - cryst. axis [0,0,1]                 
     3s_v     4    5    6
          inv. 180 deg rotation - cart. axis [1,0,0]             

   Cartesian axes

     site n.     atom                  positions (alat units)
         1           Sb  tau(   1) = (   0.0000000   0.0000000   1.8158716  )
         2           Sb  tau(   2) = (  -0.0000000   0.5773503   2.2115972  )

   Crystallographic axes

     site n.     atom                  positions (cryst. coord.)
         1           Sb  tau(   1) = (  0.0000000  0.0000000  0.5000000  )
         2           Sb  tau(   2) = (  0.3333333  0.6666667  0.6089630  )

     number of k points=    12
                       cart. coord. in units 2pi/alat
        k(    1) = (   0.0000000   0.0000000   0.0000000), wk =   0.0246914
        k(    2) = (   0.0000000   0.1283001   0.0000000), wk =   0.1481481
        k(    3) = (   0.0000000   0.2566001   0.0000000), wk =   0.1481481
        k(    4) = (   0.0000000   0.3849002   0.0000000), wk =   0.1481481
        k(    5) = (   0.0000000   0.5132002   0.0000000), wk =   0.1481481
        k(    6) = (   0.1111111   0.1924501   0.0000000), wk =   0.1481481
        k(    7) = (   0.1111111   0.3207501   0.0000000), wk =   0.2962963
        k(    8) = (   0.1111111   0.4490502   0.0000000), wk =   0.2962963
        k(    9) = (   0.1111111   0.5773503   0.0000000), wk =   0.1481481
        k(   10) = (   0.2222222   0.3849002   0.0000000), wk =   0.1481481
        k(   11) = (   0.2222222   0.5132002   0.0000000), wk =   0.2962963
        k(   12) = (   0.3333333   0.5773503   0.0000000), wk =   0.0493827

                       cryst. coord.
        k(    1) = (   0.0000000   0.0000000   0.0000000), wk =   0.0246914
        k(    2) = (   0.0000000   0.1111111   0.0000000), wk =   0.1481481
        k(    3) = (   0.0000000   0.2222222   0.0000000), wk =   0.1481481
        k(    4) = (   0.0000000   0.3333333   0.0000000), wk =   0.1481481
        k(    5) = (   0.0000000   0.4444444   0.0000000), wk =   0.1481481
        k(    6) = (   0.1111111   0.1111111   0.0000000), wk =   0.1481481
        k(    7) = (   0.1111111   0.2222222   0.0000000), wk =   0.2962963
        k(    8) = (   0.1111111   0.3333333   0.0000000), wk =   0.2962963
        k(    9) = (   0.1111111   0.4444444   0.0000000), wk =   0.1481481
        k(   10) = (   0.2222222   0.2222222   0.0000000), wk =   0.1481481
        k(   11) = (   0.2222222   0.3333333   0.0000000), wk =   0.2962963
        k(   12) = (   0.3333333   0.3333333   0.0000000), wk =   0.0493827

     Dense  grid:    94033 G-vectors     FFT dimensions: (  40,  40, 144)

     Dynamical RAM for                 wfc:       0.90 MB

     Dynamical RAM for     wfc (w. buffer):      11.64 MB

     Dynamical RAM for           str. fact:       0.36 MB

     Dynamical RAM for           local pot:       0.00 MB

     Dynamical RAM for          nlocal pot:       1.61 MB

     Dynamical RAM for                qrad:       2.49 MB

     Dynamical RAM for          rho,v,vnew:       2.39 MB

     Dynamical RAM for               rhoin:       0.80 MB

     Dynamical RAM for            rho*nmix:       5.74 MB

     Dynamical RAM for           G-vectors:       1.52 MB

     Dynamical RAM for          h,s,v(r/c):       0.07 MB

     Dynamical RAM for          <psi|beta>:       0.01 MB

     Dynamical RAM for                 psi:       1.79 MB

     Dynamical RAM for                hpsi:       1.79 MB

     Dynamical RAM for      wfcinit/wfcrot:       1.80 MB

     Estimated static dynamical RAM per process >      29.47 MB

     Estimated max dynamical RAM per process >      33.14 MB

     Estimated total dynamical RAM >     132.54 MB

     Initial potential from superposition of free atoms

     starting charge   29.88029, renormalised to   30.00000

     negative rho (up, down):  4.916E-04 0.000E+00
     Starting wfcs are random

     total cpu time spent up to now is        0.5 secs

     Self-consistent Calculation

     iteration #  1     ecut=    60.00 Ry     beta= 0.70
     Davidson diagonalization with overlap
     ethr =  1.00E-02,  avg # of iterations = 10.6

     Threshold (ethr) on eigenvalues was too large:
     Diagonalizing with lowered threshold

     Davidson diagonalization with overlap
     ethr =  1.15E-04,  avg # of iterations =  5.4

     negative rho (up, down):  8.167E-06 0.000E+00

     total cpu time spent up to now is        4.1 secs

     total energy              =    -282.12213975 Ry
     estimated scf accuracy    <       0.02087242 Ry

     iteration #  2     ecut=    60.00 Ry     beta= 0.70
     Davidson diagonalization with overlap
     ethr =  6.96E-05,  avg # of iterations =  3.8

     negative rho (up, down):  1.349E-06 0.000E+00

     total cpu time spent up to now is        5.0 secs

     total energy              =    -282.12498062 Ry
     estimated scf accuracy    <       0.00412994 Ry

     iteration #  3     ecut=    60.00 Ry     beta= 0.70
     Davidson diagonalization with overlap
     ethr =  1.38E-05,  avg # of iterations =  4.3

     total cpu time spent up to now is        6.0 secs

     total energy              =    -282.12612437 Ry
     estimated scf accuracy    <       0.00077632 Ry

     iteration #  4     ecut=    60.00 Ry     beta= 0.70
     Davidson diagonalization with overlap
     ethr =  2.59E-06,  avg # of iterations =  4.3

     total cpu time spent up to now is        6.9 secs

     total energy              =    -282.12622313 Ry
     estimated scf accuracy    <       0.00008715 Ry

     iteration #  5     ecut=    60.00 Ry     beta= 0.70
     Davidson diagonalization with overlap
     ethr =  2.91E-07,  avg # of iterations =  3.4

     total cpu time spent up to now is        7.7 secs

     total energy              =    -282.12622039 Ry
     estimated scf accuracy    <       0.00040615 Ry

     iteration #  6     ecut=    60.00 Ry     beta= 0.70
     Davidson diagonalization with overlap
     ethr =  2.91E-07,  avg # of iterations =  2.1

     total cpu time spent up to now is        8.5 secs

     End of self-consistent calculation

          k = 0.0000 0.0000 0.0000 ( 11745 PWs)   bands (ev):

   -28.9603 -28.9603 -28.8893 -28.8893 -28.8249 -28.7784 -28.7784 -28.7263
   -28.6958 -28.6958 -11.6028  -6.6225  -0.9119  -0.3702  -0.3702   1.1796
     2.4181   2.4181   4.1229   4.1239

     occupation numbers 
     1.0000   1.0000   1.0000   1.0000   1.0000   1.0000   1.0000   1.0000
     1.0000   1.0000   1.0000   1.0000   1.0000   1.0000   1.0000   0.0000
     0.0000   0.0000   0.0000   0.0000

          k = 0.0000 0.1283 0.0000 ( 11787 PWs)   bands (ev):

   -28.9596 -28.9543 -28.8882 -28.8852 -28.8237 -28.7813 -28.7782 -28.7283
   -28.7026 -28.6961 -11.4727  -6.6270  -1.4428  -0.8613  -0.6479   1.6976
     2.4579   2.6805   4.2614   4.3058

     occupation numbers 
     1.0000   1.0000   1.0000   1.0000   1.0000   1.0000   1.0000   1.0000
     1.0000   1.0000   1.0000   1.0000   1.0000   1.0000   1.0000   0.0000
     0.0000   0.0000   0.0000   0.0000

          k = 0.0000 0.2566 0.0000 ( 11741 PWs)   bands (ev):

   -28.9578 -28.9376 -28.8847 -28.8739 -28.8203 -28.7897 -28.7780 -28.7359
   -28.7194 -28.6969 -11.0907  -6.7502  -2.7098  -1.1745  -0.8274   1.1133
     3.0585   3.1132   4.5559   4.7425

     occupation numbers 
     1.0000   1.0000   1.0000   1.0000   1.0000   1.0000   1.0000   1.0000
     1.0000   1.0000   1.0000   1.0000   1.0000   1.0000   1.0000   0.0000
     0.0000   0.0000   0.0000   0.0000

          k = 0.0000 0.3849 0.0000 ( 11726 PWs)   bands (ev):

   -28.9556 -28.9167 -28.8760 -28.8576 -28.8166 -28.8028 -28.7790 -28.7564
   -28.7320 -28.6980 -10.4941  -7.2441  -3.3104  -1.6223  -1.1541   0.9383
     2.7219   3.1887   5.0639   5.1947

     occupation numbers 
     1.0000   1.0000   1.0000   1.0000   1.0000   1.0000   1.0000   1.0000
     1.0000   1.0000   1.0000   1.0000   1.0000   1.0000   1.0000   0.0000
     0.0000   0.0000   0.0000   0.0000

          k = 0.0000 0.5132 0.0000 ( 11702 PWs)   bands (ev):

   -28.9540 -28.9050 -28.8552 -28.8392 -28.8232 -28.8192 -28.7817 -28.7749
   -28.7374 -28.6987  -9.8435  -7.9652  -3.2883  -1.8664  -1.6761   1.2047
     2.2043   3.1793   4.8318   6.1117

     occupation numbers 
     1.0000   1.0000   1.0000   1.0000   1.0000   1.0000   1.0000   1.0000
     1.0000   1.0000   1.0000   1.0000   1.0000   1.0000   1.0000   0.0000
     0.0000   0.0000   0.0000   0.0000

          k = 0.1111 0.1925 0.0000 ( 11739 PWs)   bands (ev):

   -28.9585 -28.9426 -28.8858 -28.8779 -28.8214 -28.7874 -28.7775 -28.7329
   -28.7146 -28.6967 -11.2162  -6.6885  -2.3277  -1.2989  -0.7947   1.8766
     2.2691   3.2954   4.5218   4.5809

     occupation numbers 
     1.0000   1.0000   1.0000   1.0000   1.0000   1.0000   1.0000   1.0000
     1.0000   1.0000   1.0000   1.0000   1.0000   1.0000   1.0000   0.0000
     0.0000   0.0000   0.0000   0.0000

          k = 0.1111 0.3208 0.0000 ( 11736 PWs)   bands (ev):

   -28.9567 -28.9223 -28.8806 -28.8647 -28.8169 -28.7992 -28.7765 -28.7477
   -28.7294 -28.6979 -10.7223  -7.0007  -3.0523  -2.0175  -0.8799   1.5033
     2.6698   3.2163   4.9103   5.0789

     occupation numbers 
     1.0000   1.0000   1.0000   1.0000   1.0000   1.0000   1.0000   1.0000
     1.0000   1.0000   1.0000   1.0000   1.0000   1.0000   1.0000   0.0000
     0.0000   0.0000   0.0000   0.0000

          k = 0.1111 0.4491 0.0000 ( 11730 PWs)   bands (ev):

   -28.9549 -28.9035 -28.8675 -28.8477 -28.8179 -28.8126 -28.7779 -28.7703
   -28.7376 -28.6990 -10.0603  -7.6706  -3.2878  -2.3372  -1.3435   1.5496
     2.4928   2.9484   5.1690   5.7575

     occupation numbers 
     1.0000   1.0000   1.0000   1.0000   1.0000   1.0000   1.0000   1.0000
     1.0000   1.0000   1.0000   1.0000   1.0000   1.0000   1.0000   0.0000
     0.0000   0.0000   0.0000   0.0000

          k = 0.1111 0.5774 0.0000 ( 11692 PWs)   bands (ev):

   -28.9542 -28.8979 -28.8460 -28.8406 -28.8275 -28.8220 -28.7855 -28.7738
   -28.7407 -28.6995  -9.6017  -8.1751  -3.3017  -2.2566  -1.7701   1.9468
     1.9770   2.9640   4.9348   6.8083

     occupation numbers 
     1.0000   1.0000   1.0000   1.0000   1.0000   1.0000   1.0000   1.0000
     1.0000   1.0000   1.0000   1.0000   1.0000   1.0000   1.0000   0.0000
     0.0000   0.0000   0.0000   0.0000

          k = 0.2222 0.3849 0.0000 ( 11734 PWs)   bands (ev):

   -28.9556 -28.9001 -28.8744 -28.8512 -28.8156 -28.8119 -28.7723 -28.7700
   -28.7386 -28.6995 -10.1434  -7.5267  -3.0064  -2.9657  -1.1574   1.9543
     2.1368   3.4547   5.4445   5.6936

     occupation numbers 
     1.0000   1.0000   1.0000   1.0000   1.0000   1.0000   1.0000   1.0000
     1.0000   1.0000   1.0000   1.0000   1.0000   1.0000   1.0000   0.0000
     0.0000   0.0000   0.0000   0.0000

          k = 0.2222 0.5132 0.0000 ( 11733 PWs)   bands (ev):

   -28.9548 -28.8841 -28.8607 -28.8378 -28.8320 -28.8116 -28.7925 -28.7671
   -28.7462 -28.7007  -9.4739  -8.2071  -3.5461  -2.5515  -1.6707   1.5034
     2.7031   3.2591   5.6774   6.5592

     occupation numbers 
     1.0000   1.0000   1.0000   1.0000   1.0000   1.0000   1.0000   1.0000
     1.0000   1.0000   1.0000   1.0000   1.0000   1.0000   1.0000   0.0000
     0.0000   0.0000   0.0000   0.0000

          k = 0.3333 0.5774 0.0000 ( 11736 PWs)   bands (ev):

   -28.9548 -28.8637 -28.8632 -28.8526 -28.8140 -28.8137 -28.8099 -28.7568
   -28.7565 -28.7015  -8.8242  -8.8239  -3.8258  -2.1084  -2.1083   1.1798
     3.2208   3.2210   6.3031   6.9611

     occupation numbers 
     1.0000   1.0000   1.0000   1.0000   1.0000   1.0000   1.0000   1.0000
     1.0000   1.0000   1.0000   1.0000   1.0000   1.0000   1.0000   0.0000
     0.0000   0.0000   0.0000   0.0000

     highest occupied, lowest unoccupied level (ev):    -0.3702    0.9383

!    total energy              =    -282.12626741 Ry
     estimated scf accuracy    <       0.00000036 Ry

     The total energy is the sum of the following terms:
     one-electron contribution =    -710.62290897 Ry
     hartree contribution      =     352.98506864 Ry
     xc contribution           =     -31.71861301 Ry
     ewald contribution        =     107.23018593 Ry

     convergence has been achieved in   6 iterations

     Forces acting on atoms (cartesian axes, Ry/au):

     atom    1 type  1   force =     0.00000000    0.00000000    0.00027553
     atom    2 type  1   force =     0.00000000    0.00000000   -0.00027553
     The non-local contrib.  to forces
     atom    1 type  1   force =     0.00000000    0.00000000    0.56154296
     atom    2 type  1   force =     0.00000000    0.00000000   -0.56714928
     The ionic contribution  to forces
     atom    1 type  1   force =    -0.00000001    0.00000001  -34.41858759
     atom    2 type  1   force =     0.00000001   -0.00000001   34.41858759
     The local contribution  to forces
     atom    1 type  1   force =    -0.00000000   -0.00000000   33.85631335
     atom    2 type  1   force =     0.00000018   -0.00000010  -33.85731879
     The core correction contribution to forces
     atom    1 type  1   force =     0.00000000    0.00000000    0.00000000
     atom    2 type  1   force =     0.00000000    0.00000000    0.00000000
     The Hubbard contrib.    to forces
     atom    1 type  1   force =     0.00000000    0.00000000    0.00000000
     atom    2 type  1   force =     0.00000000    0.00000000    0.00000000
     The SCF correction term to forces
     atom    1 type  1   force =     0.00000000   -0.00000000   -0.00000000
     atom    2 type  1   force =    -0.00000000    0.00000000    0.00238382

     Total force =     0.000276     Total SCF correction =     0.002384
     SCF correction compared to forces is large: reduce conv_thr to get better values


     Computing stress (Cartesian axis) and pressure

          total   stress  (Ry/bohr**3)                   (kbar)     P=        0.01
  -0.00000026  -0.00000000   0.00000000           -0.04       -0.00        0.00
   0.00000000  -0.00000026   0.00000000            0.00       -0.04        0.00
   0.00000000   0.00000000   0.00000074            0.00        0.00        0.11

     kinetic stress (kbar)   8549.11      0.00      0.00
                                0.00   8549.11      0.00
                                0.00      0.00   8579.79

     local   stress (kbar) -60006.76      0.00     -0.00
                                0.00 -60006.76      0.00
                               -0.00      0.00  58771.43

     nonloc. stress (kbar)  -2261.49      0.00      0.00
                                0.00  -2261.49     -0.00
                                0.00     -0.00  -2240.72

     hartree stress (kbar)  30635.18      0.00     -0.00
                                0.00  30635.18     -0.00
                               -0.00     -0.00 -26547.68

     exc-cor stress (kbar)   -980.56      0.00     -0.00
                                0.00   -980.56      0.00
                               -0.00      0.00   -981.85

     corecor stress (kbar)      0.00      0.00      0.00
                                0.00      0.00      0.00
                                0.00      0.00      0.00

     ewald   stress (kbar)  24064.48     -0.00      0.00
                               -0.00  24064.48     -0.00
                                0.00     -0.00 -37580.86

     hubbard stress (kbar)      0.00      0.00      0.00
                                0.00      0.00      0.00
                                0.00      0.00      0.00

     DFT-D   stress (kbar)      0.00      0.00      0.00
                                0.00      0.00      0.00
                                0.00      0.00      0.00

     XDM     stress (kbar)      0.00      0.00      0.00
                                0.00      0.00      0.00
                                0.00      0.00      0.00

     dft-nl  stress (kbar)      0.00      0.00      0.00
                                0.00      0.00      0.00
                                0.00      0.00      0.00

     TS-vdW  stress (kbar)      0.00      0.00      0.00
                                0.00      0.00      0.00
                                0.00      0.00      0.00



     BFGS Geometry Optimization
     Energy error            =      0.0E+00
     Gradient error          =      2.8E-04
     Cell gradient error     =      2.6E-07


     number of scf cycles    =   1
     number of bfgs steps    =   0

     enthalpy new            =    -282.1262674110 Ry

     new trust radius        =       0.0002755259 bohr
     new conv_thr            =       0.0000010000 Ry

     new unit-cell volume =   1495.42638 a.u.^3 (   221.59933 Ang^3 )
     density =      0.18001 g/cm^3

CELL_PARAMETERS (alat=  7.80503755)
   0.999993422  -0.000000000   0.000000000
  -0.499996711   0.866019707   0.000000000
   0.000000000   0.000000000   3.631743179

ATOMIC_POSITIONS (crystal)
Sb            0.0000000000        0.0000000000        0.5000000000    0   0   0
Sb            0.3333333330        0.6666666670        0.6089532799



     Writing output data file ./tmp/Sb.save/
     NEW-OLD atomic charge density approx. for the potential
     extrapolated charge   29.99961, renormalised to   30.00000

     total cpu time spent up to now is        9.1 secs

     Self-consistent Calculation

     iteration #  1     ecut=    60.00 Ry     beta= 0.70
     Davidson diagonalization with overlap
     ethr =  1.00E-06,  avg # of iterations =  1.1

     Threshold (ethr) on eigenvalues was too large:
     Diagonalizing with lowered threshold

     Davidson diagonalization with overlap
     ethr =  2.50E-09,  avg # of iterations =  2.9

     total cpu time spent up to now is       10.7 secs

     End of self-consistent calculation

          k = 0.0000 0.0000 0.0000 ( 11745 PWs)   bands (ev):

   -28.9598 -28.9598 -28.8887 -28.8887 -28.8246 -28.7779 -28.7779 -28.7260
   -28.6953 -28.6953 -11.6015  -6.6225  -0.9121  -0.3692  -0.3692   1.1814
     2.4192   2.4192   4.1225   4.1236

     occupation numbers 
     1.0000   1.0000   1.0000   1.0000   1.0000   1.0000   1.0000   1.0000
     1.0000   1.0000   1.0000   1.0000   1.0000   1.0000   1.0000   0.0000
     0.0000   0.0000   0.0000   0.0000

          k = 0.0000 0.1283 0.0000 ( 11787 PWs)   bands (ev):

   -28.9591 -28.9537 -28.8876 -28.8847 -28.8234 -28.7808 -28.7777 -28.7280
   -28.7021 -28.6956 -11.4714  -6.6269  -1.4416  -0.8615  -0.6469   1.6990
     2.4591   2.6815   4.2611   4.3054

     occupation numbers 
     1.0000   1.0000   1.0000   1.0000   1.0000   1.0000   1.0000   1.0000
     1.0000   1.0000   1.0000   1.0000   1.0000   1.0000   1.0000   0.0000
     0.0000   0.0000   0.0000   0.0000

          k = 0.0000 0.2566 0.0000 ( 11741 PWs)   bands (ev):

   -28.9573 -28.9370 -28.8842 -28.8734 -28.8200 -28.7892 -28.7775 -28.7356
   -28.7190 -28.6964 -11.0895  -6.7499  -2.7088  -1.1735  -0.8277   1.1146
     3.0593   3.1144   4.5556   4.7424

     occupation numbers 
     1.0000   1.0000   1.0000   1.0000   1.0000   1.0000   1.0000   1.0000
     1.0000   1.0000   1.0000   1.0000   1.0000   1.0000   1.0000   0.0000
     0.0000   0.0000   0.0000   0.0000

          k = 0.0000 0.3849 0.0000 ( 11726 PWs)   bands (ev):

   -28.9550 -28.9161 -28.8755 -28.8571 -28.8162 -28.8023 -28.7785 -28.7560
   -28.7317 -28.6975 -10.4929  -7.2435  -3.3098  -1.6213  -1.1542   0.9395
     2.7229   3.1894   5.0640   5.1941

     occupation numbers 
     1.0000   1.0000   1.0000   1.0000   1.0000   1.0000   1.0000   1.0000
     1.0000   1.0000   1.0000   1.0000   1.0000   1.0000   1.0000   0.0000
     0.0000   0.0000   0.0000   0.0000

          k = 0.0000 0.5132 0.0000 ( 11702 PWs)   bands (ev):

   -28.9535 -28.9044 -28.8548 -28.8387 -28.8226 -28.8187 -28.7813 -28.7745
   -28.7370 -28.6982  -9.8423  -7.9643  -3.2880  -1.8654  -1.6761   1.2061
     2.2050   3.1800   4.8322   6.1112

     occupation numbers 
     1.0000   1.0000   1.0000   1.0000   1.0000   1.0000   1.0000   1.0000
     1.0000   1.0000   1.0000   1.0000   1.0000   1.0000   1.0000   0.0000
     0.0000   0.0000   0.0000   0.0000

          k = 0.1111 0.1925 0.0000 ( 11739 PWs)   bands (ev):

   -28.9580 -28.9421 -28.8852 -28.8773 -28.8210 -28.7869 -28.7770 -28.7326
   -28.7141 -28.6963 -11.2150  -6.6883  -2.3267  -1.2979  -0.7949   1.8776
     2.2704   3.2964   4.5217   4.5805

     occupation numbers 
     1.0000   1.0000   1.0000   1.0000   1.0000   1.0000   1.0000   1.0000
     1.0000   1.0000   1.0000   1.0000   1.0000   1.0000   1.0000   0.0000
     0.0000   0.0000   0.0000   0.0000

          k = 0.1111 0.3208 0.0000 ( 11736 PWs)   bands (ev):

   -28.9561 -28.9217 -28.8800 -28.8642 -28.8165 -28.7987 -28.7760 -28.7473
   -28.7290 -28.6974 -10.7210  -7.0002  -3.0516  -2.0165  -0.8802   1.5044
     2.6707   3.2175   4.9102   5.0786

     occupation numbers 
     1.0000   1.0000   1.0000   1.0000   1.0000   1.0000   1.0000   1.0000
     1.0000   1.0000   1.0000   1.0000   1.0000   1.0000   1.0000   0.0000
     0.0000   0.0000   0.0000   0.0000

          k = 0.1111 0.4491 0.0000 ( 11730 PWs)   bands (ev):

   -28.9544 -28.9029 -28.8670 -28.8472 -28.8173 -28.8121 -28.7775 -28.7699
   -28.7372 -28.6986 -10.0591  -7.6698  -3.2873  -2.3363  -1.3436   1.5505
     2.4938   2.9493   5.1695   5.7569

     occupation numbers 
     1.0000   1.0000   1.0000   1.0000   1.0000   1.0000   1.0000   1.0000
     1.0000   1.0000   1.0000   1.0000   1.0000   1.0000   1.0000   0.0000
     0.0000   0.0000   0.0000   0.0000

          k = 0.1111 0.5774 0.0000 ( 11692 PWs)   bands (ev):

   -28.9537 -28.8973 -28.8455 -28.8400 -28.8271 -28.8215 -28.7851 -28.7734
   -28.7403 -28.6990  -9.6006  -8.1741  -3.3011  -2.2558  -1.7701   1.9474
     1.9784   2.9648   4.9353   6.8077

     occupation numbers 
     1.0000   1.0000   1.0000   1.0000   1.0000   1.0000   1.0000   1.0000
     1.0000   1.0000   1.0000   1.0000   1.0000   1.0000   1.0000   0.0000
     0.0000   0.0000   0.0000   0.0000

          k = 0.2222 0.3849 0.0000 ( 11734 PWs)   bands (ev):

   -28.9551 -28.8995 -28.8738 -28.8507 -28.8150 -28.8114 -28.7719 -28.7696
   -28.7382 -28.6990 -10.1422  -7.5259  -3.0053  -2.9653  -1.1576   1.9550
     2.1376   3.4559   5.4454   5.6929

     occupation numbers 
     1.0000   1.0000   1.0000   1.0000   1.0000   1.0000   1.0000   1.0000
     1.0000   1.0000   1.0000   1.0000   1.0000   1.0000   1.0000   0.0000
     0.0000   0.0000   0.0000   0.0000

          k = 0.2222 0.5132 0.0000 ( 11733 PWs)   bands (ev):

   -28.9543 -28.8835 -28.8602 -28.8372 -28.8315 -28.8110 -28.7921 -28.7667
   -28.7458 -28.7002  -9.4728  -8.2062  -3.5450  -2.5513  -1.6707   1.5041
     2.7039   3.2602   5.6783   6.5590

     occupation numbers 
     1.0000   1.0000   1.0000   1.0000   1.0000   1.0000   1.0000   1.0000
     1.0000   1.0000   1.0000   1.0000   1.0000   1.0000   1.0000   0.0000
     0.0000   0.0000   0.0000   0.0000

          k = 0.3333 0.5774 0.0000 ( 11736 PWs)   bands (ev):

   -28.9542 -28.8630 -28.8627 -28.8521 -28.8135 -28.8134 -28.8093 -28.7563
   -28.7563 -28.7011  -8.8230  -8.8229  -3.8247  -2.1084  -2.1084   1.1806
     3.2216   3.2218   6.3028   6.9621

     occupation numbers 
     1.0000   1.0000   1.0000   1.0000   1.0000   1.0000   1.0000   1.0000
     1.0000   1.0000   1.0000   1.0000   1.0000   1.0000   1.0000   0.0000
     0.0000   0.0000   0.0000   0.0000

     highest occupied, lowest unoccupied level (ev):    -0.3692    0.9395

!    total energy              =    -282.12626758 Ry
     estimated scf accuracy    <       0.00000040 Ry

     The total energy is the sum of the following terms:
     one-electron contribution =    -710.64109472 Ry
     hartree contribution      =     352.99062718 Ry
     xc contribution           =     -31.71868789 Ry
     ewald contribution        =     107.24288785 Ry

     convergence has been achieved in   1 iterations

     Forces acting on atoms (cartesian axes, Ry/au):

     atom    1 type  1   force =     0.00000000    0.00000000    0.00001625
     atom    2 type  1   force =     0.00000000    0.00000000   -0.00001625
     The non-local contrib.  to forces
     atom    1 type  1   force =     0.00000000    0.00000000    0.56477743
     atom    2 type  1   force =    -0.00000000   -0.00000000   -0.56493172
     The ionic contribution  to forces
     atom    1 type  1   force =    -0.00000001    0.00000001  -34.41853443
     atom    2 type  1   force =     0.00000001   -0.00000001   34.41853443
     The local contribution  to forces
     atom    1 type  1   force =     0.00000000   -0.00000000   33.85160251
     atom    2 type  1   force =     0.00000018   -0.00000010  -33.84995335
     The core correction contribution to forces
     atom    1 type  1   force =     0.00000000    0.00000000    0.00000000
     atom    2 type  1   force =     0.00000000    0.00000000    0.00000000
     The Hubbard contrib.    to forces
     atom    1 type  1   force =     0.00000000    0.00000000    0.00000000
     atom    2 type  1   force =     0.00000000    0.00000000    0.00000000
     The SCF correction term to forces
     atom    1 type  1   force =     0.00000000   -0.00000000    0.00000000
     atom    2 type  1   force =    -0.00000000    0.00000000   -0.00354777

     Total force =     0.000016     Total SCF correction =     0.003548
     SCF correction compared to forces is large: reduce conv_thr to get better values


     Computing stress (Cartesian axis) and pressure

          total   stress  (Ry/bohr**3)                   (kbar)     P=        0.07
   0.00000090  -0.00000000  -0.00000000            0.13       -0.00       -0.00
   0.00000000   0.00000090  -0.00000000            0.00        0.13       -0.00
   0.00000000   0.00000000  -0.00000040            0.00        0.00       -0.06

     kinetic stress (kbar)   8549.26      0.00      0.00
                               -0.00   8549.26      0.00
                                0.00      0.00   8579.89

     local   stress (kbar) -60009.57      0.00     -0.00
                                0.00 -60009.57      0.00
                               -0.00      0.00  58774.50

     nonloc. stress (kbar)  -2261.49      0.00      0.00
                                0.00  -2261.49      0.00
                               -0.00     -0.00  -2240.73

     hartree stress (kbar)  30636.14     -0.00      0.00
                               -0.00  30636.14     -0.00
                                0.00     -0.00 -26548.60

     exc-cor stress (kbar)   -980.57      0.00      0.00
                                0.00   -980.57      0.00
                                0.00      0.00   -981.86

     corecor stress (kbar)      0.00      0.00      0.00
                                0.00      0.00      0.00
                                0.00      0.00      0.00

     ewald   stress (kbar)  24066.37     -0.00      0.00
                               -0.00  24066.37     -0.00
                                0.00     -0.00 -37583.25

     hubbard stress (kbar)      0.00      0.00      0.00
                                0.00      0.00      0.00
                                0.00      0.00      0.00

     DFT-D   stress (kbar)      0.00      0.00      0.00
                                0.00      0.00      0.00
                                0.00      0.00      0.00

     XDM     stress (kbar)      0.00      0.00      0.00
                                0.00      0.00      0.00
                                0.00      0.00      0.00

     dft-nl  stress (kbar)      0.00      0.00      0.00
                                0.00      0.00      0.00
                                0.00      0.00      0.00

     TS-vdW  stress (kbar)      0.00      0.00      0.00
                                0.00      0.00      0.00
                                0.00      0.00      0.00


     Energy error            =      1.7E-07
     Gradient error          =      1.6E-05
     Cell gradient error     =      9.0E-07


     number of scf cycles    =   2
     number of bfgs steps    =   1

     enthalpy old            =    -282.1262674110 Ry
     enthalpy new            =    -282.1262675804 Ry

     CASE: enthalpy_new < enthalpy_old

     new trust radius        =       0.0001604503 bohr
     new conv_thr            =       0.0000000100 Ry

     new unit-cell volume =   1495.47360 a.u.^3 (   221.60632 Ang^3 )
     density =      0.18000 g/cm^3

CELL_PARAMETERS (alat=  7.80503755)
   1.000009210   0.000000000   0.000000000
  -0.500004605   0.866033380   0.000000000
   0.000000000   0.000000000   3.631743179

ATOMIC_POSITIONS (crystal)
Sb            0.0000000000        0.0000000000        0.5000000000    0   0   0
Sb            0.3333333330        0.6666666670        0.6089476194



     Writing output data file ./tmp/Sb.save/
     NEW-OLD atomic charge density approx. for the potential
     extrapolated charge   30.00094, renormalised to   30.00000

     total cpu time spent up to now is       11.3 secs

     Self-consistent Calculation

     iteration #  1     ecut=    60.00 Ry     beta= 0.70
     Davidson diagonalization with overlap
     ethr =  1.00E-06,  avg # of iterations =  1.2

     Threshold (ethr) on eigenvalues was too large:
     Diagonalizing with lowered threshold

     Davidson diagonalization with overlap
     ethr =  8.41E-10,  avg # of iterations =  2.1

     total cpu time spent up to now is       12.9 secs

     total energy              =    -282.12626745 Ry
     estimated scf accuracy    <       0.00000046 Ry

     iteration #  2     ecut=    60.00 Ry     beta= 0.70
     Davidson diagonalization with overlap
     ethr =  1.53E-09,  avg # of iterations =  3.0

     total cpu time spent up to now is       13.8 secs

     total energy              =    -282.12626774 Ry
     estimated scf accuracy    <       0.00000027 Ry

     iteration #  3     ecut=    60.00 Ry     beta= 0.70
     Davidson diagonalization with overlap
     ethr =  8.98E-10,  avg # of iterations =  2.0

     total cpu time spent up to now is       14.6 secs

     total energy              =    -282.12626774 Ry
     estimated scf accuracy    <       0.00000021 Ry

     iteration #  4     ecut=    60.00 Ry     beta= 0.70
     Davidson diagonalization with overlap
     ethr =  7.14E-10,  avg # of iterations =  1.8

     total cpu time spent up to now is       15.4 secs

     total energy              =    -282.12626777 Ry
     estimated scf accuracy    <       0.00000006 Ry

     iteration #  5     ecut=    60.00 Ry     beta= 0.70
     Davidson diagonalization with overlap
     ethr =  1.84E-10,  avg # of iterations =  1.7

     total cpu time spent up to now is       16.1 secs

     End of self-consistent calculation

          k = 0.0000 0.0000 0.0000 ( 11745 PWs)   bands (ev):

   -28.9585 -28.9585 -28.8874 -28.8874 -28.8231 -28.7765 -28.7765 -28.7245
   -28.6939 -28.6939 -11.6011  -6.6207  -0.9105  -0.3689  -0.3689   1.1813
     2.4198   2.4198   4.1223   4.1226

     occupation numbers 
     1.0000   1.0000   1.0000   1.0000   1.0000   1.0000   1.0000   1.0000
     1.0000   1.0000   1.0000   1.0000   1.0000   1.0000   1.0000   0.0000
     0.0000   0.0000   0.0000   0.0000

          k =-0.0000 0.1283 0.0000 ( 11787 PWs)   bands (ev):

   -28.9578 -28.9524 -28.8863 -28.8834 -28.8220 -28.7794 -28.7763 -28.7265
   -28.7007 -28.6942 -11.4710  -6.6252  -1.4414  -0.8599  -0.6466   1.6993
     2.4595   2.6822   4.2603   4.3050

     occupation numbers 
     1.0000   1.0000   1.0000   1.0000   1.0000   1.0000   1.0000   1.0000
     1.0000   1.0000   1.0000   1.0000   1.0000   1.0000   1.0000   0.0000
     0.0000   0.0000   0.0000   0.0000

          k =-0.0000 0.2566 0.0000 ( 11741 PWs)   bands (ev):

   -28.9559 -28.9357 -28.8829 -28.8721 -28.8185 -28.7879 -28.7761 -28.7341
   -28.7176 -28.6950 -11.0890  -6.7484  -2.7083  -1.1732  -0.8261   1.1152
     3.0602   3.1149   4.5553   4.7416

     occupation numbers 
     1.0000   1.0000   1.0000   1.0000   1.0000   1.0000   1.0000   1.0000
     1.0000   1.0000   1.0000   1.0000   1.0000   1.0000   1.0000   0.0000
     0.0000   0.0000   0.0000   0.0000

          k =-0.0000 0.3849 0.0000 ( 11726 PWs)   bands (ev):

   -28.9537 -28.9148 -28.8742 -28.8558 -28.8148 -28.8010 -28.7771 -28.7546
   -28.7302 -28.6961 -10.4924  -7.2424  -3.3089  -1.6210  -1.1527   0.9402
     2.7237   3.1905   5.0641   5.1939

     occupation numbers 
     1.0000   1.0000   1.0000   1.0000   1.0000   1.0000   1.0000   1.0000
     1.0000   1.0000   1.0000   1.0000   1.0000   1.0000   1.0000   0.0000
     0.0000   0.0000   0.0000   0.0000

          k =-0.0000 0.5132 0.0000 ( 11702 PWs)   bands (ev):

   -28.9522 -28.9031 -28.8534 -28.8373 -28.8213 -28.8173 -28.7799 -28.7731
   -28.7355 -28.6968  -9.8418  -7.9635  -3.2867  -1.8651  -1.6747   1.2065
     2.2062   3.1811   4.8331   6.1111

     occupation numbers 
     1.0000   1.0000   1.0000   1.0000   1.0000   1.0000   1.0000   1.0000
     1.0000   1.0000   1.0000   1.0000   1.0000   1.0000   1.0000   0.0000
     0.0000   0.0000   0.0000   0.0000

          k = 0.1111 0.1924 0.0000 ( 11739 PWs)   bands (ev):

   -28.9567 -28.9408 -28.8839 -28.8760 -28.8196 -28.7855 -28.7756 -28.7312
   -28.7127 -28.6949 -11.2146  -6.6867  -2.3263  -1.2975  -0.7933   1.8783
     2.2708   3.2971   4.5208   4.5802

     occupation numbers 
     1.0000   1.0000   1.0000   1.0000   1.0000   1.0000   1.0000   1.0000
     1.0000   1.0000   1.0000   1.0000   1.0000   1.0000   1.0000   0.0000
     0.0000   0.0000   0.0000   0.0000

          k = 0.1111 0.3207 0.0000 ( 11736 PWs)   bands (ev):

   -28.9548 -28.9204 -28.8787 -28.8629 -28.8151 -28.7974 -28.7746 -28.7459
   -28.7276 -28.6960 -10.7206  -6.9990  -3.0509  -2.0160  -0.8786   1.5051
     2.6716   3.2181   4.9099   5.0781

     occupation numbers 
     1.0000   1.0000   1.0000   1.0000   1.0000   1.0000   1.0000   1.0000
     1.0000   1.0000   1.0000   1.0000   1.0000   1.0000   1.0000   0.0000
     0.0000   0.0000   0.0000   0.0000

          k = 0.1111 0.4490 0.0000 ( 11730 PWs)   bands (ev):

   -28.9531 -28.9016 -28.8656 -28.8459 -28.8160 -28.8107 -28.7760 -28.7685
   -28.7358 -28.6972 -10.0587  -7.6689  -3.2863  -2.3358  -1.3421   1.5514
     2.4947   2.9502   5.1702   5.7568

     occupation numbers 
     1.0000   1.0000   1.0000   1.0000   1.0000   1.0000   1.0000   1.0000
     1.0000   1.0000   1.0000   1.0000   1.0000   1.0000   1.0000   0.0000
     0.0000   0.0000   0.0000   0.0000

          k = 0.1111 0.5773 0.0000 ( 11692 PWs)   bands (ev):

   -28.9524 -28.8960 -28.8442 -28.8387 -28.8257 -28.8201 -28.7837 -28.7720
   -28.7389 -28.6976  -9.6001  -8.1734  -3.3001  -2.2553  -1.7687   1.9486
     1.9788   2.9659   4.9361   6.8073

     occupation numbers 
     1.0000   1.0000   1.0000   1.0000   1.0000   1.0000   1.0000   1.0000
     1.0000   1.0000   1.0000   1.0000   1.0000   1.0000   1.0000   0.0000
     0.0000   0.0000   0.0000   0.0000

          k = 0.2222 0.3849 0.0000 ( 11734 PWs)   bands (ev):

   -28.9537 -28.8982 -28.8725 -28.8494 -28.8137 -28.8101 -28.7705 -28.7682
   -28.7368 -28.6976 -10.1417  -7.5250  -3.0048  -2.9642  -1.1561   1.9562
     2.1387   3.4565   5.4453   5.6927

     occupation numbers 
     1.0000   1.0000   1.0000   1.0000   1.0000   1.0000   1.0000   1.0000
     1.0000   1.0000   1.0000   1.0000   1.0000   1.0000   1.0000   0.0000
     0.0000   0.0000   0.0000   0.0000

          k = 0.2222 0.5132 0.0000 ( 11733 PWs)   bands (ev):

   -28.9530 -28.8822 -28.8589 -28.8359 -28.8301 -28.8097 -28.7907 -28.7653
   -28.7443 -28.6988  -9.4723  -8.2055  -3.5445  -2.5501  -1.6693   1.5054
     2.7050   3.2610   5.6787   6.5591

     occupation numbers 
     1.0000   1.0000   1.0000   1.0000   1.0000   1.0000   1.0000   1.0000
     1.0000   1.0000   1.0000   1.0000   1.0000   1.0000   1.0000   0.0000
     0.0000   0.0000   0.0000   0.0000

          k = 0.3333 0.5773 0.0000 ( 11736 PWs)   bands (ev):

   -28.9529 -28.8615 -28.8615 -28.8508 -28.8121 -28.8121 -28.8080 -28.7549
   -28.7548 -28.6996  -8.8224  -8.8224  -3.8242  -2.1070  -2.1070   1.1818
     3.2228   3.2228   6.3033   6.9621

     occupation numbers 
     1.0000   1.0000   1.0000   1.0000   1.0000   1.0000   1.0000   1.0000
     1.0000   1.0000   1.0000   1.0000   1.0000   1.0000   1.0000   0.0000
     0.0000   0.0000   0.0000   0.0000

     highest occupied, lowest unoccupied level (ev):    -0.3689    0.9402

!    total energy              =    -282.12626777 Ry
     estimated scf accuracy    <          1.8E-09 Ry

     The total energy is the sum of the following terms:
     one-electron contribution =    -710.63838717 Ry
     hartree contribution      =     352.99001554 Ry
     xc contribution           =     -31.71858118 Ry
     ewald contribution        =     107.24068504 Ry

     convergence has been achieved in   5 iterations

     Forces acting on atoms (cartesian axes, Ry/au):

     atom    1 type  1   force =     0.00000000    0.00000000    0.00001675
     atom    2 type  1   force =     0.00000000    0.00000000   -0.00001675
     The non-local contrib.  to forces
     atom    1 type  1   force =     0.00000000   -0.00000000    0.56440428
     atom    2 type  1   force =     0.00000000   -0.00000000   -0.56435681
     The ionic contribution  to forces
     atom    1 type  1   force =    -0.00000001    0.00000001  -34.41678531
     atom    2 type  1   force =     0.00000001   -0.00000001   34.41678531
     The local contribution  to forces
     atom    1 type  1   force =    -0.00000000   -0.00000000   33.85268731
     atom    2 type  1   force =     0.00000018   -0.00000010  -33.85249226
     The core correction contribution to forces
     atom    1 type  1   force =     0.00000000    0.00000000    0.00000000
     atom    2 type  1   force =     0.00000000    0.00000000    0.00000000
     The Hubbard contrib.    to forces
     atom    1 type  1   force =     0.00000000    0.00000000    0.00000000
     atom    2 type  1   force =     0.00000000    0.00000000    0.00000000
     The SCF correction term to forces
     atom    1 type  1   force =     0.00000000   -0.00000000   -0.00000000
     atom    2 type  1   force =    -0.00000000    0.00000000    0.00008859

     Total force =     0.000017     Total SCF correction =     0.000089
     SCF correction compared to forces is large: reduce conv_thr to get better values


     Computing stress (Cartesian axis) and pressure

          total   stress  (Ry/bohr**3)                   (kbar)     P=       -0.01
   0.00000001   0.00000000   0.00000000            0.00        0.00        0.00
  -0.00000000   0.00000001   0.00000000           -0.00        0.00        0.00
   0.00000000  -0.00000000  -0.00000020            0.00       -0.00       -0.03

     kinetic stress (kbar)   8548.94      0.00      0.00
                                0.00   8548.94      0.00
                               -0.00      0.00   8579.63

     local   stress (kbar) -60007.50      0.00     -0.00
                                0.00 -60007.50      0.00
                               -0.00      0.00  58772.51

     nonloc. stress (kbar)  -2261.46      0.00      0.00
                                0.00  -2261.46      0.00
                                0.00      0.00  -2240.69

     hartree stress (kbar)  30635.18     -0.00      0.00
                               -0.00  30635.18     -0.00
                                0.00     -0.00 -26547.84

     exc-cor stress (kbar)   -980.54     -0.00      0.00
                               -0.00   -980.54     -0.00
                                0.00     -0.00   -981.83

     corecor stress (kbar)      0.00      0.00      0.00
                                0.00      0.00      0.00
                                0.00      0.00      0.00

     ewald   stress (kbar)  24065.37     -0.00      0.00
                               -0.00  24065.37     -0.00
                                0.00     -0.00 -37581.81

     hubbard stress (kbar)      0.00      0.00      0.00
                                0.00      0.00      0.00
                                0.00      0.00      0.00

     DFT-D   stress (kbar)      0.00      0.00      0.00
                                0.00      0.00      0.00
                                0.00      0.00      0.00

     XDM     stress (kbar)      0.00      0.00      0.00
                                0.00      0.00      0.00
                                0.00      0.00      0.00

     dft-nl  stress (kbar)      0.00      0.00      0.00
                                0.00      0.00      0.00
                                0.00      0.00      0.00

     TS-vdW  stress (kbar)      0.00      0.00      0.00
                                0.00      0.00      0.00
                                0.00      0.00      0.00


     Energy error            =      1.9E-07
     Gradient error          =      1.7E-05
     Cell gradient error     =      5.7E-09


     bfgs converged in   3 scf cycles and   2 bfgs steps
     (criteria: energy <  1.0E-04 Ry, force <  1.0E-03Ry/Bohr, cell <  1.0E-03kbar)

     End of BFGS Geometry Optimization

     Final enthalpy =    -282.1262677699 Ry

     File ./tmp/Sb.bfgs deleted, as requested
Begin final coordinates
     new unit-cell volume =   1495.47360 a.u.^3 (   221.60632 Ang^3 )
     density =      0.18000 g/cm^3

CELL_PARAMETERS (alat=  7.80503755)
   1.000009210   0.000000000   0.000000000
  -0.500004605   0.866033380   0.000000000
   0.000000000   0.000000000   3.631743179

ATOMIC_POSITIONS (crystal)
Sb            0.0000000000        0.0000000000        0.5000000000    0   0   0
Sb            0.3333333330        0.6666666670        0.6089476194
End final coordinates



     Writing output data file ./tmp/Sb.save/

     Final scf calculation at the relaxed structure.
     The G-vectors are recalculated for the final unit cell
     Results may differ from those at the preceding step.

     Parallelization info
     --------------------
     sticks:   dense  smooth     PW     G-vecs:    dense   smooth      PW
     Min         253     253     73                23505    23505    3589
     Max         255     255     75                23511    23511    3592
     Sum        1015    1015    295                94033    94033   14361



     bravais-lattice index     =            4
     lattice parameter (alat)  =       7.8050  a.u.
     unit-cell volume          =    1495.4736 (a.u.)^3
     number of atoms/cell      =            2
     number of atomic types    =            1
     number of electrons       =        30.00
     number of Kohn-Sham states=           20
     kinetic-energy cutoff     =      60.0000  Ry
     charge density cutoff     =     240.0000  Ry
     scf convergence threshold =      1.0E-08
     mixing beta               =       0.7000
     number of iterations used =            8  plain     mixing
     press convergence thresh. =      1.0E-03
     Exchange-correlation= PBE
                           (   1   4   3   4   0   0   0)

     celldm(1)=   7.805038  celldm(2)=   0.000000  celldm(3)=   3.631743
     celldm(4)=   0.000000  celldm(5)=   0.000000  celldm(6)=   0.000000

     crystal axes: (cart. coord. in units of alat)
               a(1) = (   1.000009   0.000000   0.000000 )  
               a(2) = (  -0.500005   0.866033   0.000000 )  
               a(3) = (   0.000000   0.000000   3.631743 )  

     reciprocal axes: (cart. coord. in units 2 pi/alat)
               b(1) = (  0.999991  0.577345 -0.000000 )  
               b(2) = ( -0.000000  1.154690  0.000000 )  
               b(3) = (  0.000000 -0.000000  0.275350 )  


     PseudoPot. # 1 for Sb read from file:
     /Users/cdhogan/Research/Codes/espresso/PSEUDO/SG15-1.2/Sb_ONCV_PBE-1.2.upf
     MD5 check sum: 0417cd6c0fe8ce4611e2b23135f1abd9
     Pseudo is Norm-conserving, Zval = 15.0
     Generated using ONCVPSP code by D. R. Hamann
     Using radial grid of  602 points,  6 beta functions with: 
                l(1) =   0
                l(2) =   0
                l(3) =   1
                l(4) =   1
                l(5) =   2
                l(6) =   2

     atomic species   valence    mass     pseudopotential
        Sb            15.00    12.01100     Sb( 1.00)

      6 Sym. Ops. (no inversion) found


                                    s                        frac. trans.

      isym =  1     identity                                     

 cryst.   s( 1) = (     1          0          0      )
                  (     0          1          0      )
                  (     0          0          1      )

 cart.    s( 1) = (  1.0000000  0.0000000  0.0000000 )
                  (  0.0000000  1.0000000  0.0000000 )
                  (  0.0000000  0.0000000  1.0000000 )


      isym =  2     120 deg rotation - cryst. axis [0,0,1]       

 cryst.   s( 2) = (     0          1          0      )
                  (    -1         -1          0      )
                  (     0          0          1      )

 cart.    s( 2) = ( -0.5000000 -0.8660254  0.0000000 )
                  (  0.8660254 -0.5000000  0.0000000 )
                  (  0.0000000  0.0000000  1.0000000 )


      isym =  3     120 deg rotation - cryst. axis [0,0,-1]      

 cryst.   s( 3) = (    -1         -1          0      )
                  (     1          0          0      )
                  (     0          0          1      )

 cart.    s( 3) = ( -0.5000000  0.8660254  0.0000000 )
                  ( -0.8660254 -0.5000000  0.0000000 )
                  (  0.0000000  0.0000000  1.0000000 )


      isym =  4     inv. 180 deg rotation - cart. axis [1,0,0]   

 cryst.   s( 4) = (    -1          0          0      )
                  (     1          1          0      )
                  (     0          0          1      )

 cart.    s( 4) = ( -1.0000000  0.0000000  0.0000000 )
                  (  0.0000000  1.0000000  0.0000000 )
                  (  0.0000000  0.0000000  1.0000000 )


      isym =  5     inv. 180 deg rotation - cryst. axis [0,1,0]  

 cryst.   s( 5) = (     1          1          0      )
                  (     0         -1          0      )
                  (     0          0          1      )

 cart.    s( 5) = (  0.5000000  0.8660254  0.0000000 )
                  (  0.8660254 -0.5000000  0.0000000 )
                  (  0.0000000  0.0000000  1.0000000 )


      isym =  6     inv. 180 deg rotation - cryst. axis [1,1,0]  

 cryst.   s( 6) = (     0         -1          0      )
                  (    -1          0          0      )
                  (     0          0          1      )

 cart.    s( 6) = (  0.5000000 -0.8660254  0.0000000 )
                  ( -0.8660254 -0.5000000  0.0000000 )
                  (  0.0000000  0.0000000  1.0000000 )


     point group C_3v (3m)  
     there are  3 classes
     the character table:

       E     2C3   3s_v 
A_1    1.00  1.00  1.00
A_2    1.00  1.00 -1.00
E      2.00 -1.00  0.00

     the symmetry operations in each class and the name of the first element:

     E        1
          identity                                               
     2C3      2    3
          120 deg rotation - cryst. axis [0,0,1]                 
     3s_v     4    5    6
          inv. 180 deg rotation - cart. axis [1,0,0]             

   Cartesian axes

     site n.     atom                  positions (alat units)
         1           Sb  tau(   1) = (   0.0000000   0.0000000   1.8158716  )
         2           Sb  tau(   2) = (  -0.0000000   0.5773556   2.2115414  )

   Crystallographic axes

     site n.     atom                  positions (cryst. coord.)
         1           Sb  tau(   1) = (  0.0000000  0.0000000  0.5000000  )
         2           Sb  tau(   2) = (  0.3333333  0.6666667  0.6089476  )

     number of k points=    12
                       cart. coord. in units 2pi/alat
        k(    1) = (   0.0000000   0.0000000   0.0000000), wk =   0.0246914
        k(    2) = (  -0.0000000   0.1282989   0.0000000), wk =   0.1481481
        k(    3) = (  -0.0000000   0.2565978   0.0000000), wk =   0.1481481
        k(    4) = (  -0.0000000   0.3848966   0.0000000), wk =   0.1481481
        k(    5) = (  -0.0000000   0.5131955   0.0000000), wk =   0.1481481
        k(    6) = (   0.1111101   0.1924483   0.0000000), wk =   0.1481481
        k(    7) = (   0.1111101   0.3207472   0.0000000), wk =   0.2962963
        k(    8) = (   0.1111101   0.4490461   0.0000000), wk =   0.2962963
        k(    9) = (   0.1111101   0.5773450   0.0000000), wk =   0.1481481
        k(   10) = (   0.2222202   0.3848966   0.0000000), wk =   0.1481481
        k(   11) = (   0.2222202   0.5131955   0.0000000), wk =   0.2962963
        k(   12) = (   0.3333303   0.5773450   0.0000000), wk =   0.0493827

                       cryst. coord.
        k(    1) = (   0.0000000   0.0000000   0.0000000), wk =   0.0246914
        k(    2) = (   0.0000000   0.1111111   0.0000000), wk =   0.1481481
        k(    3) = (   0.0000000   0.2222222   0.0000000), wk =   0.1481481
        k(    4) = (   0.0000000   0.3333333   0.0000000), wk =   0.1481481
        k(    5) = (   0.0000000   0.4444444   0.0000000), wk =   0.1481481
        k(    6) = (   0.1111111   0.1111111   0.0000000), wk =   0.1481481
        k(    7) = (   0.1111111   0.2222222   0.0000000), wk =   0.2962963
        k(    8) = (   0.1111111   0.3333333   0.0000000), wk =   0.2962963
        k(    9) = (   0.1111111   0.4444444   0.0000000), wk =   0.1481481
        k(   10) = (   0.2222222   0.2222222   0.0000000), wk =   0.1481481
        k(   11) = (   0.2222222   0.3333333   0.0000000), wk =   0.2962963
        k(   12) = (   0.3333333   0.3333333   0.0000000), wk =   0.0493827

     Dense  grid:    94033 G-vectors     FFT dimensions: (  40,  40, 144)

     Dynamical RAM for                 wfc:       0.90 MB

     Dynamical RAM for     wfc (w. buffer):      11.64 MB

     Dynamical RAM for           str. fact:       0.36 MB

     Dynamical RAM for           local pot:       0.18 MB

     Dynamical RAM for          nlocal pot:       1.61 MB

     Dynamical RAM for                qrad:       2.49 MB

     Dynamical RAM for          rho,v,vnew:       2.39 MB

     Dynamical RAM for               rhoin:       0.80 MB

     Dynamical RAM for            rho*nmix:       5.74 MB

     Dynamical RAM for           G-vectors:       1.52 MB

     Dynamical RAM for          h,s,v(r/c):       0.07 MB

     Dynamical RAM for          <psi|beta>:       0.01 MB

     Dynamical RAM for                 psi:       1.79 MB

     Dynamical RAM for                hpsi:       1.79 MB

     Dynamical RAM for      wfcinit/wfcrot:       1.80 MB

     Estimated static dynamical RAM per process >      29.65 MB

     Estimated max dynamical RAM per process >      33.32 MB

     Estimated total dynamical RAM >     133.26 MB

     Initial potential from superposition of free atoms

     starting charge   29.88029, renormalised to   30.00000

     negative rho (up, down):  4.916E-04 0.000E+00
     Starting wfcs are random

     total cpu time spent up to now is       17.0 secs

     Self-consistent Calculation

     iteration #  1     ecut=    60.00 Ry     beta= 0.70
     Davidson diagonalization with overlap
     c_bands:  1 eigenvalues not converged
     c_bands:  2 eigenvalues not converged
     c_bands:  4 eigenvalues not converged
     c_bands:  2 eigenvalues not converged
     c_bands:  2 eigenvalues not converged
     c_bands:  4 eigenvalues not converged
     c_bands:  2 eigenvalues not converged
     c_bands:  2 eigenvalues not converged
     c_bands:  2 eigenvalues not converged
     c_bands:  2 eigenvalues not converged
     c_bands:  2 eigenvalues not converged
     c_bands:  2 eigenvalues not converged
     ethr =  1.00E-06,  avg # of iterations = 20.0

     negative rho (up, down):  9.294E-06 0.000E+00

     total cpu time spent up to now is       22.3 secs

     total energy              =    -282.12294606 Ry
     estimated scf accuracy    <       0.02029949 Ry

     iteration #  2     ecut=    60.00 Ry     beta= 0.70
     Davidson diagonalization with overlap
     ethr =  6.77E-05,  avg # of iterations =  2.1

     negative rho (up, down):  1.381E-06 0.000E+00

     total cpu time spent up to now is       23.2 secs

     total energy              =    -282.12509645 Ry
     estimated scf accuracy    <       0.00369272 Ry

     iteration #  3     ecut=    60.00 Ry     beta= 0.70
     Davidson diagonalization with overlap
     ethr =  1.23E-05,  avg # of iterations =  6.1

     total cpu time spent up to now is       24.4 secs

     total energy              =    -282.12613134 Ry
     estimated scf accuracy    <       0.00075820 Ry

     iteration #  4     ecut=    60.00 Ry     beta= 0.70
     Davidson diagonalization with overlap
     ethr =  2.53E-06,  avg # of iterations =  3.4

     total cpu time spent up to now is       25.3 secs

     total energy              =    -282.12626628 Ry
     estimated scf accuracy    <       0.00000574 Ry

     iteration #  5     ecut=    60.00 Ry     beta= 0.70
     Davidson diagonalization with overlap
     ethr =  1.91E-08,  avg # of iterations =  3.3

     total cpu time spent up to now is       26.2 secs

     total energy              =    -282.12626727 Ry
     estimated scf accuracy    <       0.00000192 Ry

     iteration #  6     ecut=    60.00 Ry     beta= 0.70
     Davidson diagonalization with overlap
     ethr =  6.40E-09,  avg # of iterations =  2.0

     total cpu time spent up to now is       27.0 secs

     total energy              =    -282.12626745 Ry
     estimated scf accuracy    <       0.00000255 Ry

     iteration #  7     ecut=    60.00 Ry     beta= 0.70
     Davidson diagonalization with overlap
     ethr =  6.40E-09,  avg # of iterations =  1.7

     total cpu time spent up to now is       27.7 secs

     total energy              =    -282.12626778 Ry
     estimated scf accuracy    <       0.00000002 Ry

     iteration #  8     ecut=    60.00 Ry     beta= 0.70
     Davidson diagonalization with overlap
     ethr =  6.23E-11,  avg # of iterations =  3.0

     total cpu time spent up to now is       28.7 secs

     End of self-consistent calculation

          k = 0.0000 0.0000 0.0000 ( 11745 PWs)   bands (ev):

   -28.9582 -28.9582 -28.8872 -28.8872 -28.8229 -28.7763 -28.7763 -28.7242
   -28.6936 -28.6936 -11.6008  -6.6205  -0.9104  -0.3686  -0.3686   1.1815
     2.4200   2.4200   4.1223   4.1226

     occupation numbers 
     1.0000   1.0000   1.0000   1.0000   1.0000   1.0000   1.0000   1.0000
     1.0000   1.0000   1.0000   1.0000   1.0000   1.0000   1.0000   0.0000
     0.0000   0.0000   0.0000   0.0000

          k =-0.0000 0.1283 0.0000 ( 11787 PWs)   bands (ev):

   -28.9575 -28.9521 -28.8861 -28.8831 -28.8217 -28.7792 -28.7761 -28.7263
   -28.7004 -28.6939 -11.4707  -6.6250  -1.4411  -0.8598  -0.6463   1.6995
     2.4597   2.6825   4.2603   4.3051

     occupation numbers 
     1.0000   1.0000   1.0000   1.0000   1.0000   1.0000   1.0000   1.0000
     1.0000   1.0000   1.0000   1.0000   1.0000   1.0000   1.0000   0.0000
     0.0000   0.0000   0.0000   0.0000

          k =-0.0000 0.2566 0.0000 ( 11741 PWs)   bands (ev):

   -28.9557 -28.9355 -28.8826 -28.8718 -28.8183 -28.7876 -28.7759 -28.7339
   -28.7173 -28.6948 -11.0887  -6.7482  -2.7081  -1.1729  -0.8260   1.1154
     3.0605   3.1151   4.5554   4.7418

     occupation numbers 
     1.0000   1.0000   1.0000   1.0000   1.0000   1.0000   1.0000   1.0000
     1.0000   1.0000   1.0000   1.0000   1.0000   1.0000   1.0000   0.0000
     0.0000   0.0000   0.0000   0.0000

          k =-0.0000 0.3849 0.0000 ( 11726 PWs)   bands (ev):

   -28.9534 -28.9146 -28.8739 -28.8555 -28.8146 -28.8007 -28.7769 -28.7543
   -28.7300 -28.6958 -10.4921  -7.2422  -3.3087  -1.6207  -1.1526   0.9404
     2.7239   3.1907   5.0643   5.1940

     occupation numbers 
     1.0000   1.0000   1.0000   1.0000   1.0000   1.0000   1.0000   1.0000
     1.0000   1.0000   1.0000   1.0000   1.0000   1.0000   1.0000   0.0000
     0.0000   0.0000   0.0000   0.0000

          k =-0.0000 0.5132 0.0000 ( 11702 PWs)   bands (ev):

   -28.9519 -28.9028 -28.8531 -28.8371 -28.8210 -28.8171 -28.7796 -28.7728
   -28.7353 -28.6965  -9.8415  -7.9633  -3.2865  -1.8648  -1.6745   1.2068
     2.2063   3.1813   4.8332   6.1112

     occupation numbers 
     1.0000   1.0000   1.0000   1.0000   1.0000   1.0000   1.0000   1.0000
     1.0000   1.0000   1.0000   1.0000   1.0000   1.0000   1.0000   0.0000
     0.0000   0.0000   0.0000   0.0000

          k = 0.1111 0.1924 0.0000 ( 11739 PWs)   bands (ev):

   -28.9564 -28.9405 -28.8836 -28.8757 -28.8193 -28.7853 -28.7754 -28.7309
   -28.7124 -28.6946 -11.2143  -6.6865  -2.3260  -1.2972  -0.7932   1.8786
     2.2710   3.2973   4.5209   4.5803

     occupation numbers 
     1.0000   1.0000   1.0000   1.0000   1.0000   1.0000   1.0000   1.0000
     1.0000   1.0000   1.0000   1.0000   1.0000   1.0000   1.0000   0.0000
     0.0000   0.0000   0.0000   0.0000

          k = 0.1111 0.3207 0.0000 ( 11738 PWs)   bands (ev):

   -28.9546 -28.9201 -28.8785 -28.8626 -28.8148 -28.7971 -28.7744 -28.7456
   -28.7273 -28.6958 -10.7203  -6.9988  -3.0506  -2.0158  -0.8785   1.5053
     2.6718   3.2183   4.9101   5.0784

     occupation numbers 
     1.0000   1.0000   1.0000   1.0000   1.0000   1.0000   1.0000   1.0000
     1.0000   1.0000   1.0000   1.0000   1.0000   1.0000   1.0000   0.0000
     0.0000   0.0000   0.0000   0.0000

          k = 0.1111 0.4490 0.0000 ( 11730 PWs)   bands (ev):

   -28.9528 -28.9014 -28.8654 -28.8456 -28.8157 -28.8105 -28.7758 -28.7682
   -28.7355 -28.6969 -10.0584  -7.6687  -3.2861  -2.3355  -1.3420   1.5516
     2.4949   2.9504   5.1703   5.7570

     occupation numbers 
     1.0000   1.0000   1.0000   1.0000   1.0000   1.0000   1.0000   1.0000
     1.0000   1.0000   1.0000   1.0000   1.0000   1.0000   1.0000   0.0000
     0.0000   0.0000   0.0000   0.0000

          k = 0.1111 0.5773 0.0000 ( 11692 PWs)   bands (ev):

   -28.9521 -28.8958 -28.8439 -28.8384 -28.8254 -28.8199 -28.7834 -28.7717
   -28.7386 -28.6974  -9.5998  -8.1731  -3.2999  -2.2550  -1.7685   1.9488
     1.9790   2.9661   4.9362   6.8073

     occupation numbers 
     1.0000   1.0000   1.0000   1.0000   1.0000   1.0000   1.0000   1.0000
     1.0000   1.0000   1.0000   1.0000   1.0000   1.0000   1.0000   0.0000
     0.0000   0.0000   0.0000   0.0000

          k = 0.2222 0.3849 0.0000 ( 11734 PWs)   bands (ev):

   -28.9535 -28.8979 -28.8723 -28.8491 -28.8134 -28.8098 -28.7702 -28.7679
   -28.7365 -28.6974 -10.1414  -7.5247  -3.0046  -2.9640  -1.1560   1.9564
     2.1388   3.4567   5.4456   5.6930

     occupation numbers 
     1.0000   1.0000   1.0000   1.0000   1.0000   1.0000   1.0000   1.0000
     1.0000   1.0000   1.0000   1.0000   1.0000   1.0000   1.0000   0.0000
     0.0000   0.0000   0.0000   0.0000

          k = 0.2222 0.5132 0.0000 ( 11733 PWs)   bands (ev):

   -28.9527 -28.8820 -28.8586 -28.8356 -28.8299 -28.8094 -28.7904 -28.7650
   -28.7441 -28.6986  -9.4720  -8.2052  -3.5442  -2.5499  -1.6691   1.5055
     2.7051   3.2612   5.6789   6.5594

     occupation numbers 
     1.0000   1.0000   1.0000   1.0000   1.0000   1.0000   1.0000   1.0000
     1.0000   1.0000   1.0000   1.0000   1.0000   1.0000   1.0000   0.0000
     0.0000   0.0000   0.0000   0.0000

          k = 0.3333 0.5773 0.0000 ( 11736 PWs)   bands (ev):

   -28.9527 -28.8613 -28.8613 -28.8505 -28.8118 -28.8118 -28.8077 -28.7546
   -28.7546 -28.6994  -8.8221  -8.8221  -3.8239  -2.1068  -2.1068   1.1820
     3.2230   3.2230   6.3038   6.9624

     occupation numbers 
     1.0000   1.0000   1.0000   1.0000   1.0000   1.0000   1.0000   1.0000
     1.0000   1.0000   1.0000   1.0000   1.0000   1.0000   1.0000   0.0000
     0.0000   0.0000   0.0000   0.0000

     highest occupied, lowest unoccupied level (ev):    -0.3686    0.9404

!    total energy              =    -282.12626778 Ry
     estimated scf accuracy    <          8.8E-10 Ry

     The total energy is the sum of the following terms:
     one-electron contribution =    -710.63765237 Ry
     hartree contribution      =     352.98925117 Ry
     xc contribution           =     -31.71855163 Ry
     ewald contribution        =     107.24068504 Ry

     convergence has been achieved in   8 iterations

     Forces acting on atoms (cartesian axes, Ry/au):

     atom    1 type  1   force =     0.00000000    0.00000000    0.00005812
     atom    2 type  1   force =     0.00000000    0.00000000   -0.00005812
     The non-local contrib.  to forces
     atom    1 type  1   force =     0.00000000    0.00000000    0.56441523
     atom    2 type  1   force =     0.00000000    0.00000000   -0.56444478
     The ionic contribution  to forces
     atom    1 type  1   force =    -0.00000001    0.00000001  -34.41678531
     atom    2 type  1   force =     0.00000001   -0.00000001   34.41678531
     The local contribution  to forces
     atom    1 type  1   force =     0.00000000   -0.00000000   33.85239724
     atom    2 type  1   force =     0.00000018   -0.00000010  -33.85218798
     The core correction contribution to forces
     atom    1 type  1   force =     0.00000000    0.00000000    0.00000000
     atom    2 type  1   force =     0.00000000    0.00000000    0.00000000
     The Hubbard contrib.    to forces
     atom    1 type  1   force =     0.00000000    0.00000000    0.00000000
     atom    2 type  1   force =     0.00000000    0.00000000    0.00000000
     The SCF correction term to forces
     atom    1 type  1   force =    -0.00000000    0.00000000    0.00000000
     atom    2 type  1   force =     0.00000000   -0.00000000   -0.00022161

     Total force =     0.000058     Total SCF correction =     0.000222
     SCF correction compared to forces is large: reduce conv_thr to get better values


     Computing stress (Cartesian axis) and pressure

          total   stress  (Ry/bohr**3)                   (kbar)     P=       -0.03
  -0.00000006  -0.00000000   0.00000000           -0.01       -0.00        0.00
  -0.00000000  -0.00000006  -0.00000000           -0.00       -0.01       -0.00
   0.00000000  -0.00000000  -0.00000042            0.00       -0.00       -0.06

     kinetic stress (kbar)   8548.94     -0.00      0.00
                               -0.00   8548.94      0.00
                                0.00      0.00   8579.61

     local   stress (kbar) -60007.43      0.00     -0.00
                                0.00 -60007.43      0.00
                               -0.00      0.00  58772.43

     nonloc. stress (kbar)  -2261.46      0.00      0.00
                                0.00  -2261.46      0.00
                                0.00      0.00  -2240.70

     hartree stress (kbar)  30635.11     -0.00      0.00
                               -0.00  30635.11     -0.00
                                0.00     -0.00 -26547.77

     exc-cor stress (kbar)   -980.54      0.00     -0.00
                                0.00   -980.54      0.00
                               -0.00      0.00   -981.83

     corecor stress (kbar)      0.00      0.00      0.00
                                0.00      0.00      0.00
                                0.00      0.00      0.00

     ewald   stress (kbar)  24065.37     -0.00      0.00
                               -0.00  24065.37     -0.00
                                0.00     -0.00 -37581.81

     hubbard stress (kbar)      0.00      0.00      0.00
                                0.00      0.00      0.00
                                0.00      0.00      0.00

     DFT-D   stress (kbar)      0.00      0.00      0.00
                                0.00      0.00      0.00
                                0.00      0.00      0.00

     XDM     stress (kbar)      0.00      0.00      0.00
                                0.00      0.00      0.00
                                0.00      0.00      0.00

     dft-nl  stress (kbar)      0.00      0.00      0.00
                                0.00      0.00      0.00
                                0.00      0.00      0.00

     TS-vdW  stress (kbar)      0.00      0.00      0.00
                                0.00      0.00      0.00
                                0.00      0.00      0.00



     Writing output data file ./tmp/Sb.save/

     init_run     :      0.87s CPU      0.91s WALL (       2 calls)
     electrons    :     24.63s CPU     26.01s WALL (       4 calls)
     update_pot   :      0.44s CPU      0.45s WALL (       2 calls)
     forces       :      0.47s CPU      0.51s WALL (       4 calls)
     stress       :      1.22s CPU      1.27s WALL (       4 calls)

     Called by init_run:
     wfcinit      :      0.53s CPU      0.55s WALL (       2 calls)
     wfcinit:atom :      0.00s CPU      0.00s WALL (      24 calls)
     wfcinit:wfcr :      0.48s CPU      0.51s WALL (      24 calls)
     potinit      :      0.17s CPU      0.17s WALL (       2 calls)
     hinit0       :      0.15s CPU      0.15s WALL (       2 calls)

     Called by electrons:
     c_bands      :     21.62s CPU     22.91s WALL (      23 calls)
     sum_band     :      2.69s CPU      2.73s WALL (      23 calls)
     v_of_rho     :      0.32s CPU      0.35s WALL (      24 calls)
     v_h          :      0.02s CPU      0.02s WALL (      24 calls)
     v_xc         :      0.30s CPU      0.33s WALL (      24 calls)
     mix_rho      :      0.03s CPU      0.04s WALL (      23 calls)

     Called by c_bands:
     init_us_2    :      0.23s CPU      0.26s WALL (     672 calls)
     cegterg      :     21.13s CPU     22.40s WALL (     276 calls)

     Called by sum_band:
     sum_band:wei :      0.00s CPU      0.00s WALL (      23 calls)
     sum_band:loo :      2.64s CPU      2.68s WALL (      23 calls)
     sum_band:buf :      0.02s CPU      0.02s WALL (     276 calls)
     sum_band:ini :      0.09s CPU      0.11s WALL (     276 calls)

     Called by *egterg:
     cdiaghg      :      0.36s CPU      0.41s WALL (    1311 calls)
     cegterg:over :      1.37s CPU      1.63s WALL (    1095 calls)
     cegterg:upda :      0.63s CPU      0.80s WALL (    1095 calls)
     cegterg:last :      0.86s CPU      1.01s WALL (     798 calls)
     h_psi        :     17.82s CPU     18.37s WALL (    1395 calls)
     g_psi        :      0.05s CPU      0.05s WALL (    1095 calls)

     Called by h_psi:
     h_psi:calbec :      0.99s CPU      1.15s WALL (    1395 calls)
     vloc_psi     :     16.10s CPU     16.26s WALL (    1395 calls)
     add_vuspsi   :      0.67s CPU      0.87s WALL (    1395 calls)

     General routines
     calbec       :      1.17s CPU      1.37s WALL (    1635 calls)
     fft          :      0.30s CPU      0.31s WALL (     273 calls)
     ffts         :      0.01s CPU      0.01s WALL (      23 calls)
     fftw         :     17.41s CPU     17.58s WALL (   44022 calls)

     Parallel routines
     fft_scatt_xy :      1.56s CPU      1.58s WALL (   44318 calls)
     fft_scatt_yz :      2.05s CPU      2.08s WALL (   44318 calls)

     PWSCF        :     27.68s CPU     29.25s WALL


   This run was terminated on:  19:52:45  30Apr2026            

=------------------------------------------------------------------------------=
   JOB DONE.
=------------------------------------------------------------------------------=
Note: The following floating-point exceptions are signalling: IEEE_INVALID_FLAG IEEE_DIVIDE_BY_ZERO IEEE_UNDERFLOW_FLAG
