
     Program PWSCF v.6.7MaX starts on 30Apr2026 at 19:37:56 

     This program is part of the open-source Quantum ESPRESSO suite
     for quantum simulation of materials; please cite
         "P. Giannozzi et al., J. Phys.:Condens. Matter 21 395502 (2009);
         "P. Giannozzi et al., J. Phys.:Condens. Matter 29 465901 (2017);
          URL http://www.quantum-espresso.org", 
     in publications or presentations arising from this work. More details at
     http://www.quantum-espresso.org/quote

     Parallel version (MPI & OpenMP), running on       4 processor cores
     Number of MPI processes:                 4
     Threads/MPI process:                     1

     MPI processes distributed on     1 nodes
     R & G space division:  proc/nbgrp/npool/nimage =       4
     Waiting for input...
     Reading input from standard input

     Current dimensions of program PWSCF are:
     Max number of different atomic species (ntypx) = 10
     Max number of k-points (npk) =  40000
     Max angular momentum in pseudopotentials (lmaxx) =  3
     Message from routine read_pp_mesh:
     mesh size missing, using the one in header

     Subspace diagonalization in iterative solution of the eigenvalue problem:
     a serial algorithm will be used

     Message from routine setup:
     no reason to have ecutrho>4*ecutwfc

     Parallelization info
     --------------------
     sticks:   dense  smooth     PW     G-vecs:    dense   smooth      PW
     Min         595     238     66                87501    22156    3391
     Max         596     239     69                87512    22167    3393
     Sum        2383     955    271               350027    88657   13569



     bravais-lattice index     =            4
     lattice parameter (alat)  =       7.5778  a.u.
     unit-cell volume          =    1409.6368 (a.u.)^3
     number of atoms/cell      =            2
     number of atomic types    =            1
     number of electrons       =        30.00
     number of Kohn-Sham states=           20
     kinetic-energy cutoff     =      60.0000  Ry
     charge density cutoff     =     600.0000  Ry
     scf convergence threshold =      1.0E-06
     mixing beta               =       0.7000
     number of iterations used =            8  plain     mixing
     energy convergence thresh.=      1.0E-04
     force convergence thresh. =      1.0E-03
     press convergence thresh. =      1.0E-03
     Exchange-correlation= PBE
                           (   1   4   3   4   0   0   0)
     nstep                     =           50


     celldm(1)=   7.577802  celldm(2)=   0.000000  celldm(3)=   3.740648
     celldm(4)=   0.000000  celldm(5)=   0.000000  celldm(6)=   0.000000

     crystal axes: (cart. coord. in units of alat)
               a(1) = (   1.000000   0.000000   0.000000 )  
               a(2) = (  -0.500000   0.866025   0.000000 )  
               a(3) = (   0.000000   0.000000   3.740648 )  

     reciprocal axes: (cart. coord. in units 2 pi/alat)
               b(1) = (  1.000000  0.577350 -0.000000 )  
               b(2) = (  0.000000  1.154701  0.000000 )  
               b(3) = (  0.000000 -0.000000  0.267333 )  


     PseudoPot. # 1 for Sb read from file:
     /Users/cdhogan/Research/Codes/espresso/PSEUDO/SG15-1.2/Sb_ONCV_PBE-1.2.upf
     MD5 check sum: 0417cd6c0fe8ce4611e2b23135f1abd9
     Pseudo is Norm-conserving, Zval = 15.0
     Generated using ONCVPSP code by D. R. Hamann
     Using radial grid of  602 points,  6 beta functions with: 
                l(1) =   0
                l(2) =   0
                l(3) =   1
                l(4) =   1
                l(5) =   2
                l(6) =   2

     atomic species   valence    mass     pseudopotential
        Sb            15.00    12.01100     Sb( 1.00)

      6 Sym. Ops. (no inversion) found


                                    s                        frac. trans.

      isym =  1     identity                                     

 cryst.   s( 1) = (     1          0          0      )
                  (     0          1          0      )
                  (     0          0          1      )

 cart.    s( 1) = (  1.0000000  0.0000000  0.0000000 )
                  (  0.0000000  1.0000000  0.0000000 )
                  (  0.0000000  0.0000000  1.0000000 )


      isym =  2     120 deg rotation - cryst. axis [0,0,1]       

 cryst.   s( 2) = (     0          1          0      )
                  (    -1         -1          0      )
                  (     0          0          1      )

 cart.    s( 2) = ( -0.5000000 -0.8660254  0.0000000 )
                  (  0.8660254 -0.5000000  0.0000000 )
                  (  0.0000000  0.0000000  1.0000000 )


      isym =  3     120 deg rotation - cryst. axis [0,0,-1]      

 cryst.   s( 3) = (    -1         -1          0      )
                  (     1          0          0      )
                  (     0          0          1      )

 cart.    s( 3) = ( -0.5000000  0.8660254  0.0000000 )
                  ( -0.8660254 -0.5000000  0.0000000 )
                  (  0.0000000  0.0000000  1.0000000 )


      isym =  4     inv. 180 deg rotation - cart. axis [1,0,0]   

 cryst.   s( 4) = (    -1          0          0      )
                  (     1          1          0      )
                  (     0          0          1      )

 cart.    s( 4) = ( -1.0000000  0.0000000  0.0000000 )
                  (  0.0000000  1.0000000  0.0000000 )
                  (  0.0000000  0.0000000  1.0000000 )


      isym =  5     inv. 180 deg rotation - cryst. axis [0,1,0]  

 cryst.   s( 5) = (     1          1          0      )
                  (     0         -1          0      )
                  (     0          0          1      )

 cart.    s( 5) = (  0.5000000  0.8660254  0.0000000 )
                  (  0.8660254 -0.5000000  0.0000000 )
                  (  0.0000000  0.0000000  1.0000000 )


      isym =  6     inv. 180 deg rotation - cryst. axis [1,1,0]  

 cryst.   s( 6) = (     0         -1          0      )
                  (    -1          0          0      )
                  (     0          0          1      )

 cart.    s( 6) = (  0.5000000 -0.8660254  0.0000000 )
                  ( -0.8660254 -0.5000000  0.0000000 )
                  (  0.0000000  0.0000000  1.0000000 )


     point group C_3v (3m)  
     there are  3 classes
     the character table:

       E     2C3   3s_v 
A_1    1.00  1.00  1.00
A_2    1.00  1.00 -1.00
E      2.00 -1.00  0.00

     the symmetry operations in each class and the name of the first element:

     E        1
          identity                                               
     2C3      2    3
          120 deg rotation - cryst. axis [0,0,1]                 
     3s_v     4    5    6
          inv. 180 deg rotation - cart. axis [1,0,0]             

   Cartesian axes

     site n.     atom                  positions (alat units)
         1           Sb  tau(   1) = (   0.0000000   0.0000000   1.8703242  )
         2           Sb  tau(   2) = (  -0.0000000   0.5773503   2.2743142  )

   Crystallographic axes

     site n.     atom                  positions (cryst. coord.)
         1           Sb  tau(   1) = (  0.0000000  0.0000000  0.5000000  )
         2           Sb  tau(   2) = (  0.3333333  0.6666667  0.6080000  )

     number of k points=    12
                       cart. coord. in units 2pi/alat
        k(    1) = (   0.0000000   0.0000000   0.0000000), wk =   0.0246914
        k(    2) = (   0.0000000   0.1283001   0.0000000), wk =   0.1481481
        k(    3) = (   0.0000000   0.2566001   0.0000000), wk =   0.1481481
        k(    4) = (   0.0000000   0.3849002   0.0000000), wk =   0.1481481
        k(    5) = (   0.0000000   0.5132002   0.0000000), wk =   0.1481481
        k(    6) = (   0.1111111   0.1924501   0.0000000), wk =   0.1481481
        k(    7) = (   0.1111111   0.3207501   0.0000000), wk =   0.2962963
        k(    8) = (   0.1111111   0.4490502   0.0000000), wk =   0.2962963
        k(    9) = (   0.1111111   0.5773503   0.0000000), wk =   0.1481481
        k(   10) = (   0.2222222   0.3849002   0.0000000), wk =   0.1481481
        k(   11) = (   0.2222222   0.5132002   0.0000000), wk =   0.2962963
        k(   12) = (   0.3333333   0.5773503   0.0000000), wk =   0.0493827

                       cryst. coord.
        k(    1) = (   0.0000000   0.0000000   0.0000000), wk =   0.0246914
        k(    2) = (   0.0000000   0.1111111   0.0000000), wk =   0.1481481
        k(    3) = (   0.0000000   0.2222222   0.0000000), wk =   0.1481481
        k(    4) = (   0.0000000   0.3333333   0.0000000), wk =   0.1481481
        k(    5) = (   0.0000000   0.4444444   0.0000000), wk =   0.1481481
        k(    6) = (   0.1111111   0.1111111   0.0000000), wk =   0.1481481
        k(    7) = (   0.1111111   0.2222222   0.0000000), wk =   0.2962963
        k(    8) = (   0.1111111   0.3333333   0.0000000), wk =   0.2962963
        k(    9) = (   0.1111111   0.4444444   0.0000000), wk =   0.1481481
        k(   10) = (   0.2222222   0.2222222   0.0000000), wk =   0.1481481
        k(   11) = (   0.2222222   0.3333333   0.0000000), wk =   0.2962963
        k(   12) = (   0.3333333   0.3333333   0.0000000), wk =   0.0493827

     Dense  grid:   350027 G-vectors     FFT dimensions: (  60,  60, 225)

     Smooth grid:    88657 G-vectors     FFT dimensions: (  40,  40, 144)

     Dynamical RAM for                 wfc:       0.84 MB

     Dynamical RAM for     wfc (w. buffer):      10.97 MB

     Dynamical RAM for           str. fact:       1.34 MB

     Dynamical RAM for           local pot:       0.00 MB

     Dynamical RAM for          nlocal pot:       1.52 MB

     Dynamical RAM for                qrad:       3.93 MB

     Dynamical RAM for          rho,v,vnew:       8.70 MB

     Dynamical RAM for               rhoin:       2.90 MB

     Dynamical RAM for            rho*nmix:      21.37 MB

     Dynamical RAM for           G-vectors:       5.18 MB

     Dynamical RAM for          h,s,v(r/c):       0.07 MB

     Dynamical RAM for          <psi|beta>:       0.01 MB

     Dynamical RAM for                 psi:       1.69 MB

     Dynamical RAM for                hpsi:       1.69 MB

     Dynamical RAM for      wfcinit/wfcrot:       1.70 MB

     Estimated static dynamical RAM per process >      66.40 MB

     Estimated max dynamical RAM per process >      69.86 MB

     Estimated total dynamical RAM >     279.43 MB

     Initial potential from superposition of free atoms

     starting charge   29.88029, renormalised to   30.00000

     negative rho (up, down):  3.955E-04 0.000E+00
     Starting wfcs are random

     total cpu time spent up to now is        0.9 secs

     Self-consistent Calculation

     iteration #  1     ecut=    60.00 Ry     beta= 0.70
     Davidson diagonalization with overlap
     ethr =  1.00E-02,  avg # of iterations = 10.2

     Threshold (ethr) on eigenvalues was too large:
     Diagonalizing with lowered threshold

     Davidson diagonalization with overlap
     ethr =  1.08E-04,  avg # of iterations =  5.5

     negative rho (up, down):  1.159E-05 0.000E+00

     total cpu time spent up to now is        4.7 secs

     total energy              =    -282.11878972 Ry
     estimated scf accuracy    <       0.02082316 Ry

     iteration #  2     ecut=    60.00 Ry     beta= 0.70
     Davidson diagonalization with overlap
     ethr =  6.94E-05,  avg # of iterations =  2.8

     negative rho (up, down):  1.034E-06 0.000E+00

     total cpu time spent up to now is        5.7 secs

     total energy              =    -282.12146412 Ry
     estimated scf accuracy    <       0.00380859 Ry

     iteration #  3     ecut=    60.00 Ry     beta= 0.70
     Davidson diagonalization with overlap
     ethr =  1.27E-05,  avg # of iterations =  5.3

     total cpu time spent up to now is        6.8 secs

     total energy              =    -282.12252959 Ry
     estimated scf accuracy    <       0.00079989 Ry

     iteration #  4     ecut=    60.00 Ry     beta= 0.70
     Davidson diagonalization with overlap
     c_bands:  1 eigenvalues not converged
     ethr =  2.67E-06,  avg # of iterations =  4.2

     total cpu time spent up to now is        7.7 secs

     total energy              =    -282.12267264 Ry
     estimated scf accuracy    <       0.00001265 Ry

     iteration #  5     ecut=    60.00 Ry     beta= 0.70
     Davidson diagonalization with overlap
     ethr =  4.22E-08,  avg # of iterations =  3.9

     total cpu time spent up to now is        8.7 secs

     total energy              =    -282.12266546 Ry
     estimated scf accuracy    <       0.00009842 Ry

     iteration #  6     ecut=    60.00 Ry     beta= 0.70
     Davidson diagonalization with overlap
     ethr =  4.22E-08,  avg # of iterations =  2.2

     total cpu time spent up to now is        9.4 secs

     End of self-consistent calculation

          k = 0.0000 0.0000 0.0000 ( 11133 PWs)   bands (ev):

   -28.7527 -28.7527 -28.6591 -28.6591 -28.5940 -28.5233 -28.5233 -28.4669
   -28.4285 -28.4285 -11.7783  -6.4031  -0.7882   0.0467   0.0467   1.8254
     2.9287   2.9287   4.3416   4.4050

     occupation numbers 
     1.0000   1.0000   1.0000   1.0000   1.0000   1.0000   1.0000   1.0000
     1.0000   1.0000   1.0000   1.0000   1.0000   1.0000   1.0000   0.0000
     0.0000   0.0000   0.0000   0.0000

          k = 0.0000 0.1283 0.0000 ( 11102 PWs)   bands (ev):

   -28.7516 -28.7451 -28.6580 -28.6540 -28.5919 -28.5268 -28.5235 -28.4690
   -28.4374 -28.4289 -11.6349  -6.3800  -1.1484  -0.7172  -0.2723   2.2157
     3.0798   3.2278   4.5302   4.5807

     occupation numbers 
     1.0000   1.0000   1.0000   1.0000   1.0000   1.0000   1.0000   1.0000
     1.0000   1.0000   1.0000   1.0000   1.0000   1.0000   1.0000   0.0000
     0.0000   0.0000   0.0000   0.0000

          k = 0.0000 0.2566 0.0000 ( 11052 PWs)   bands (ev):

   -28.7487 -28.7239 -28.6551 -28.6401 -28.5852 -28.5370 -28.5249 -28.4768
   -28.4602 -28.4299 -11.2130  -6.4378  -2.6113  -0.8649  -0.6186   1.4717
     3.6285   3.6600   4.8110   5.0676

     occupation numbers 
     1.0000   1.0000   1.0000   1.0000   1.0000   1.0000   1.0000   1.0000
     1.0000   1.0000   1.0000   1.0000   1.0000   1.0000   1.0000   0.0000
     0.0000   0.0000   0.0000   0.0000

          k = 0.0000 0.3849 0.0000 ( 11028 PWs)   bands (ev):

   -28.7453 -28.6959 -28.6477 -28.6198 -28.5762 -28.5530 -28.5301 -28.5017
   -28.4759 -28.4312 -10.5494  -6.9388  -3.2977  -1.3624  -0.9079   1.2132
     3.0783   3.7273   5.3919   5.5179

     occupation numbers 
     1.0000   1.0000   1.0000   1.0000   1.0000   1.0000   1.0000   1.0000
     1.0000   1.0000   1.0000   1.0000   1.0000   1.0000   1.0000   0.0000
     0.0000   0.0000   0.0000   0.0000

          k = 0.0000 0.5132 0.0000 ( 11058 PWs)   bands (ev):

   -28.7431 -28.6788 -28.6262 -28.5966 -28.5797 -28.5733 -28.5364 -28.5259
   -28.4814 -28.4321  -9.8124  -7.7711  -3.2123  -1.6322  -1.5022   1.5202
     2.4803   3.6885   5.0844   6.4762

     occupation numbers 
     1.0000   1.0000   1.0000   1.0000   1.0000   1.0000   1.0000   1.0000
     1.0000   1.0000   1.0000   1.0000   1.0000   1.0000   1.0000   0.0000
     0.0000   0.0000   0.0000   0.0000

          k = 0.1111 0.1925 0.0000 ( 11091 PWs)   bands (ev):

   -28.7497 -28.7305 -28.6555 -28.6453 -28.5873 -28.5343 -28.5236 -28.4738
   -28.4535 -28.4297 -11.3519  -6.3929  -2.1647  -1.0173  -0.6117   2.3200
     2.8360   3.8928   4.8250   4.8828

     occupation numbers 
     1.0000   1.0000   1.0000   1.0000   1.0000   1.0000   1.0000   1.0000
     1.0000   1.0000   1.0000   1.0000   1.0000   1.0000   1.0000   0.0000
     0.0000   0.0000   0.0000   0.0000

          k = 0.1111 0.3208 0.0000 ( 11059 PWs)   bands (ev):

   -28.7468 -28.7044 -28.6506 -28.6298 -28.5781 -28.5490 -28.5246 -28.4907
   -28.4733 -28.4312 -10.8045  -6.6681  -3.0178  -1.8219  -0.6353   1.8538
     3.1488   3.7300   5.2013   5.4287

     occupation numbers 
     1.0000   1.0000   1.0000   1.0000   1.0000   1.0000   1.0000   1.0000
     1.0000   1.0000   1.0000   1.0000   1.0000   1.0000   1.0000   0.0000
     0.0000   0.0000   0.0000   0.0000

          k = 0.1111 0.4491 0.0000 ( 11053 PWs)   bands (ev):

   -28.7440 -28.6784 -28.6379 -28.6095 -28.5734 -28.5663 -28.5309 -28.5190
   -28.4822 -28.4326 -10.0632  -7.4123  -3.2429  -2.1908  -1.1121   1.8530
     2.8868   3.3891   5.4980   6.0909

     occupation numbers 
     1.0000   1.0000   1.0000   1.0000   1.0000   1.0000   1.0000   1.0000
     1.0000   1.0000   1.0000   1.0000   1.0000   1.0000   1.0000   0.0000
     0.0000   0.0000   0.0000   0.0000

          k = 0.1111 0.5774 0.0000 ( 11074 PWs)   bands (ev):

   -28.7429 -28.6703 -28.6156 -28.5981 -28.5868 -28.5752 -28.5381 -28.5270
   -28.4854 -28.4333  -9.5373  -8.0017  -3.2146  -2.0999  -1.6065   2.2087
     2.4090   3.3831   5.1862   7.1878

     occupation numbers 
     1.0000   1.0000   1.0000   1.0000   1.0000   1.0000   1.0000   1.0000
     1.0000   1.0000   1.0000   1.0000   1.0000   1.0000   1.0000   0.0000
     0.0000   0.0000   0.0000   0.0000

          k = 0.2222 0.3849 0.0000 ( 11049 PWs)   bands (ev):

   -28.7447 -28.6758 -28.6430 -28.6161 -28.5697 -28.5672 -28.5218 -28.5193
   -28.4839 -28.4333 -10.1592  -7.2301  -2.9285  -2.9234  -0.9000   2.2575
     2.4617   4.0772   5.8588   6.0217

     occupation numbers 
     1.0000   1.0000   1.0000   1.0000   1.0000   1.0000   1.0000   1.0000
     1.0000   1.0000   1.0000   1.0000   1.0000   1.0000   1.0000   0.0000
     0.0000   0.0000   0.0000   0.0000

          k = 0.2222 0.5132 0.0000 ( 11061 PWs)   bands (ev):

   -28.7432 -28.6539 -28.6270 -28.5995 -28.5932 -28.5630 -28.5471 -28.5178
   -28.4925 -28.4349  -9.4043  -7.9988  -3.5276  -2.4398  -1.4605   1.7238
     3.0740   3.7798   6.0623   6.9539

     occupation numbers 
     1.0000   1.0000   1.0000   1.0000   1.0000   1.0000   1.0000   1.0000
     1.0000   1.0000   1.0000   1.0000   1.0000   1.0000   1.0000   0.0000
     0.0000   0.0000   0.0000   0.0000

          k = 0.3333 0.5774 0.0000 ( 11028 PWs)   bands (ev):

   -28.7429 -28.6280 -28.6265 -28.6196 -28.5752 -28.5741 -28.5581 -28.5058
   -28.5049 -28.4360  -8.6779  -8.6770  -3.8574  -1.9340  -1.9336   1.3483
     3.6543   3.6546   6.6452   7.5706

     occupation numbers 
     1.0000   1.0000   1.0000   1.0000   1.0000   1.0000   1.0000   1.0000
     1.0000   1.0000   1.0000   1.0000   1.0000   1.0000   1.0000   0.0000
     0.0000   0.0000   0.0000   0.0000

     highest occupied, lowest unoccupied level (ev):     0.0467    1.2132

!    total energy              =    -282.12267764 Ry
     estimated scf accuracy    <       0.00000071 Ry

     The total energy is the sum of the following terms:
     one-electron contribution =    -743.03617263 Ry
     hartree contribution      =     369.47086395 Ry
     xc contribution           =     -31.78830034 Ry
     ewald contribution        =     123.23093138 Ry

     convergence has been achieved in   6 iterations

     Forces acting on atoms (cartesian axes, Ry/au):

     atom    1 type  1   force =     0.00000000    0.00000000   -0.02225857
     atom    2 type  1   force =     0.00000000    0.00000000    0.02225857
     The non-local contrib.  to forces
     atom    1 type  1   force =     0.00000000    0.00000000    0.58849517
     atom    2 type  1   force =     0.00000000   -0.00000000   -0.58615014
     The ionic contribution  to forces
     atom    1 type  1   force =    -0.00000001    0.00000001  -37.02870924
     atom    2 type  1   force =     0.00000001   -0.00000001   37.02870924
     The local contribution  to forces
     atom    1 type  1   force =     0.00000000   -0.00000000   36.42011955
     atom    2 type  1   force =     0.00000017   -0.00000010  -36.42431656
     The core correction contribution to forces
     atom    1 type  1   force =     0.00000000    0.00000000    0.00000000
     atom    2 type  1   force =     0.00000000    0.00000000    0.00000000
     The Hubbard contrib.    to forces
     atom    1 type  1   force =     0.00000000    0.00000000    0.00000000
     atom    2 type  1   force =     0.00000000    0.00000000    0.00000000
     The SCF correction term to forces
     atom    1 type  1   force =     0.00000000   -0.00000000   -0.00000000
     atom    2 type  1   force =    -0.00000000    0.00000000    0.00533971

     Total force =     0.022259     Total SCF correction =     0.005340
     SCF correction compared to forces is large: reduce conv_thr to get better values


     Computing stress (Cartesian axis) and pressure

          total   stress  (Ry/bohr**3)                   (kbar)     P=       10.34
   0.00008070  -0.00000000   0.00000000           11.87       -0.00        0.00
   0.00000000   0.00008070   0.00000000            0.00       11.87        0.00
   0.00000000   0.00000000   0.00004954            0.00        0.00        7.29

     kinetic stress (kbar)   9078.00     -0.00      0.00
                                0.00   9078.00      0.00
                                0.00      0.00   9108.67

     local   stress (kbar) -67619.44      0.00     -0.00
                                0.00 -67619.44      0.00
                               -0.00      0.00  66879.82

     nonloc. stress (kbar)  -2395.18      0.00      0.00
                                0.00  -2395.18      0.00
                                0.00      0.00  -2372.58

     hartree stress (kbar)  34425.74      0.00     -0.00
                                0.00  34425.74     -0.00
                               -0.00     -0.00 -30294.72

     exc-cor stress (kbar)  -1042.30     -0.00      0.00
                               -0.00  -1042.30     -0.00
                                0.00     -0.00  -1043.80

     corecor stress (kbar)      0.00      0.00      0.00
                                0.00      0.00      0.00
                                0.00      0.00      0.00

     ewald   stress (kbar)  27565.04     -0.00      0.00
                               -0.00  27565.04     -0.00
                                0.00     -0.00 -42270.10

     hubbard stress (kbar)      0.00      0.00      0.00
                                0.00      0.00      0.00
                                0.00      0.00      0.00

     DFT-D   stress (kbar)      0.00      0.00      0.00
                                0.00      0.00      0.00
                                0.00      0.00      0.00

     XDM     stress (kbar)      0.00      0.00      0.00
                                0.00      0.00      0.00
                                0.00      0.00      0.00

     dft-nl  stress (kbar)      0.00      0.00      0.00
                                0.00      0.00      0.00
                                0.00      0.00      0.00

     TS-vdW  stress (kbar)      0.00      0.00      0.00
                                0.00      0.00      0.00
                                0.00      0.00      0.00



     BFGS Geometry Optimization
     Energy error            =      0.0E+00
     Gradient error          =      2.2E-02
     Cell gradient error     =      8.1E-05


     number of scf cycles    =   1
     number of bfgs steps    =   0

     enthalpy new            =    -282.1226776367 Ry

     new trust radius        =       0.0222585662 bohr
     new conv_thr            =       0.0000010000 Ry

     new unit-cell volume =   1415.33050 a.u.^3 (   209.73034 Ang^3 )
     density =      0.19019 g/cm^3

CELL_PARAMETERS (alat=  7.57780176)
   1.002017517   0.000000000   0.000000000
  -0.501008758   0.867772625   0.000000000
   0.000000000   0.000000000   3.740648379

ATOMIC_POSITIONS (crystal)
Sb            0.0000000000        0.0000000000        0.5000000000    0   0   0
Sb            0.3333333330        0.6666666670        0.6087852484



     Writing output data file ./tmp/Sb.save/
     NEW-OLD atomic charge density approx. for the potential

     negative rho (up, down):  9.277E-06 0.000E+00
     extrapolated charge   30.12020, renormalised to   30.00000

     total cpu time spent up to now is       11.4 secs

     Self-consistent Calculation

     iteration #  1     ecut=    60.00 Ry     beta= 0.70
     Davidson diagonalization with overlap
     ethr =  1.00E-06,  avg # of iterations = 10.1

     total cpu time spent up to now is       13.3 secs

     total energy              =    -282.11383147 Ry
     estimated scf accuracy    <       0.00640189 Ry

     iteration #  2     ecut=    60.00 Ry     beta= 0.70
     Davidson diagonalization with overlap
     ethr =  2.13E-05,  avg # of iterations =  8.3

     total cpu time spent up to now is       14.7 secs

     total energy              =    -282.12285860 Ry
     estimated scf accuracy    <       0.01739905 Ry

     iteration #  3     ecut=    60.00 Ry     beta= 0.70
     Davidson diagonalization with overlap
     ethr =  2.13E-05,  avg # of iterations =  3.9

     total cpu time spent up to now is       15.6 secs

     total energy              =    -282.12399847 Ry
     estimated scf accuracy    <       0.00282103 Ry

     iteration #  4     ecut=    60.00 Ry     beta= 0.70
     Davidson diagonalization with overlap
     ethr =  9.40E-06,  avg # of iterations =  2.0

     total cpu time spent up to now is       16.4 secs

     total energy              =    -282.12382809 Ry
     estimated scf accuracy    <       0.00176174 Ry

     iteration #  5     ecut=    60.00 Ry     beta= 0.70
     Davidson diagonalization with overlap
     ethr =  5.87E-06,  avg # of iterations =  1.9

     total cpu time spent up to now is       17.2 secs

     total energy              =    -282.12363278 Ry
     estimated scf accuracy    <       0.00093314 Ry

     iteration #  6     ecut=    60.00 Ry     beta= 0.70
     Davidson diagonalization with overlap
     ethr =  3.11E-06,  avg # of iterations =  7.0

     total cpu time spent up to now is       18.2 secs

     total energy              =    -282.12358629 Ry
     estimated scf accuracy    <       0.00035320 Ry

     iteration #  7     ecut=    60.00 Ry     beta= 0.70
     Davidson diagonalization with overlap
     ethr =  1.18E-06,  avg # of iterations =  1.3

     total cpu time spent up to now is       19.0 secs

     total energy              =    -282.12353395 Ry
     estimated scf accuracy    <       0.00016109 Ry

     iteration #  8     ecut=    60.00 Ry     beta= 0.70
     Davidson diagonalization with overlap
     ethr =  5.37E-07,  avg # of iterations =  2.7

     total cpu time spent up to now is       20.0 secs

     total energy              =    -282.12353420 Ry
     estimated scf accuracy    <       0.00002612 Ry

     iteration #  9     ecut=    60.00 Ry     beta= 0.70
     Davidson diagonalization with overlap
     ethr =  8.71E-08,  avg # of iterations =  2.1

     total cpu time spent up to now is       20.8 secs

     End of self-consistent calculation

          k = 0.0000 0.0000 0.0000 ( 11133 PWs)   bands (ev):

   -28.7541 -28.7541 -28.6644 -28.6644 -28.6014 -28.5339 -28.5339 -28.4785
   -28.4409 -28.4409 -11.7288  -6.4340  -0.8134   0.0517   0.0517   1.8023
     2.9035   2.9035   4.3266   4.3781

     occupation numbers 
     1.0000   1.0000   1.0000   1.0000   1.0000   1.0000   1.0000   1.0000
     1.0000   1.0000   1.0000   1.0000   1.0000   1.0000   1.0000   0.0000
     0.0000   0.0000   0.0000   0.0000

          k = 0.0000 0.1280 0.0000 ( 11102 PWs)   bands (ev):

   -28.7531 -28.7468 -28.6634 -28.6596 -28.5993 -28.5373 -28.5341 -28.4805
   -28.4495 -28.4413 -11.5866  -6.4118  -1.1346  -0.7431  -0.2640   2.1935
     3.0432   3.1949   4.5094   4.5601

     occupation numbers 
     1.0000   1.0000   1.0000   1.0000   1.0000   1.0000   1.0000   1.0000
     1.0000   1.0000   1.0000   1.0000   1.0000   1.0000   1.0000   0.0000
     0.0000   0.0000   0.0000   0.0000

          k = 0.0000 0.2561 0.0000 ( 11052 PWs)   bands (ev):

   -28.7503 -28.7264 -28.6606 -28.6461 -28.5928 -28.5471 -28.5354 -28.4876
   -28.4719 -28.4422 -11.1684  -6.4685  -2.5873  -0.8511  -0.6461   1.4522
     3.5826   3.6202   4.7913   5.0392

     occupation numbers 
     1.0000   1.0000   1.0000   1.0000   1.0000   1.0000   1.0000   1.0000
     1.0000   1.0000   1.0000   1.0000   1.0000   1.0000   1.0000   0.0000
     0.0000   0.0000   0.0000   0.0000

          k = 0.0000 0.3841 0.0000 ( 11028 PWs)   bands (ev):

   -28.7470 -28.6995 -28.6534 -28.6266 -28.5841 -28.5624 -28.5403 -28.5110
   -28.4877 -28.4434 -10.5111  -6.9532  -3.2816  -1.3444  -0.9325   1.1947
     3.0516   3.6753   5.3588   5.4891

     occupation numbers 
     1.0000   1.0000   1.0000   1.0000   1.0000   1.0000   1.0000   1.0000
     1.0000   1.0000   1.0000   1.0000   1.0000   1.0000   1.0000   0.0000
     0.0000   0.0000   0.0000   0.0000

          k = 0.0000 0.5122 0.0000 ( 11058 PWs)   bands (ev):

   -28.7448 -28.6833 -28.6321 -28.6043 -28.5880 -28.5820 -28.5454 -28.5349
   -28.4931 -28.4443  -9.7824  -7.7642  -3.2126  -1.6121  -1.5191   1.5088
     2.4445   3.6357   5.0575   6.4424

     occupation numbers 
     1.0000   1.0000   1.0000   1.0000   1.0000   1.0000   1.0000   1.0000
     1.0000   1.0000   1.0000   1.0000   1.0000   1.0000   1.0000   0.0000
     0.0000   0.0000   0.0000   0.0000

          k = 0.1109 0.1921 0.0000 ( 11091 PWs)   bands (ev):

   -28.7513 -28.7327 -28.6611 -28.6512 -28.5948 -28.5445 -28.5341 -28.4849
   -28.4652 -28.4420 -11.3061  -6.4249  -2.1430  -1.0045  -0.6373   2.2892
     2.8062   3.8437   4.7999   4.8651

     occupation numbers 
     1.0000   1.0000   1.0000   1.0000   1.0000   1.0000   1.0000   1.0000
     1.0000   1.0000   1.0000   1.0000   1.0000   1.0000   1.0000   0.0000
     0.0000   0.0000   0.0000   0.0000

          k = 0.1109 0.3201 0.0000 ( 11059 PWs)   bands (ev):

   -28.7484 -28.7076 -28.6563 -28.6362 -28.5860 -28.5586 -28.5350 -28.5005
   -28.4852 -28.4434 -10.7636  -6.6916  -2.9963  -1.8031  -0.6609   1.8251
     3.1067   3.6935   5.1791   5.4004

     occupation numbers 
     1.0000   1.0000   1.0000   1.0000   1.0000   1.0000   1.0000   1.0000
     1.0000   1.0000   1.0000   1.0000   1.0000   1.0000   1.0000   0.0000
     0.0000   0.0000   0.0000   0.0000

          k = 0.1109 0.4481 0.0000 ( 11053 PWs)   bands (ev):

   -28.7458 -28.6827 -28.6438 -28.6166 -28.5819 -28.5750 -28.5405 -28.5282
   -28.4939 -28.4448 -10.0300  -7.4148  -3.2339  -2.1712  -1.1311   1.8232
     2.8539   3.3491   5.4678   6.0602

     occupation numbers 
     1.0000   1.0000   1.0000   1.0000   1.0000   1.0000   1.0000   1.0000
     1.0000   1.0000   1.0000   1.0000   1.0000   1.0000   1.0000   0.0000
     0.0000   0.0000   0.0000   0.0000

          k = 0.1109 0.5762 0.0000 ( 11074 PWs)   bands (ev):

   -28.7447 -28.6751 -28.6218 -28.6059 -28.5948 -28.5838 -28.5462 -28.5369
   -28.4970 -28.4454  -9.5108  -7.9912  -3.2097  -2.0827  -1.6216   2.1700
     2.3904   3.3332   5.1650   7.1498

     occupation numbers 
     1.0000   1.0000   1.0000   1.0000   1.0000   1.0000   1.0000   1.0000
     1.0000   1.0000   1.0000   1.0000   1.0000   1.0000   1.0000   0.0000
     0.0000   0.0000   0.0000   0.0000

          k = 0.2218 0.3841 0.0000 ( 11049 PWs)   bands (ev):

   -28.7464 -28.6801 -28.6491 -28.6227 -28.5785 -28.5756 -28.5322 -28.5281
   -28.4954 -28.4454 -10.1247  -7.2385  -2.9131  -2.9016  -0.9225   2.2227
     2.4218   4.0262   5.8456   5.9936

     occupation numbers 
     1.0000   1.0000   1.0000   1.0000   1.0000   1.0000   1.0000   1.0000
     1.0000   1.0000   1.0000   1.0000   1.0000   1.0000   1.0000   0.0000
     0.0000   0.0000   0.0000   0.0000

          k = 0.2218 0.5122 0.0000 ( 11061 PWs)   bands (ev):

   -28.7450 -28.6593 -28.6335 -28.6067 -28.6007 -28.5718 -28.5550 -28.5282
   -28.5038 -28.4469  -9.3786  -7.9914  -3.4985  -2.4395  -1.4769   1.6929
     3.0271   3.7285   6.0492   6.9208

     occupation numbers 
     1.0000   1.0000   1.0000   1.0000   1.0000   1.0000   1.0000   1.0000
     1.0000   1.0000   1.0000   1.0000   1.0000   1.0000   1.0000   0.0000
     0.0000   0.0000   0.0000   0.0000

          k = 0.3327 0.5762 0.0000 ( 11028 PWs)   bands (ev):

   -28.7446 -28.6338 -28.6338 -28.6266 -28.5818 -28.5817 -28.5674 -28.5162
   -28.5161 -28.4480  -8.6609  -8.6609  -3.8211  -1.9447  -1.9446   1.3211
     3.5988   3.5989   6.6154   7.5425

     occupation numbers 
     1.0000   1.0000   1.0000   1.0000   1.0000   1.0000   1.0000   1.0000
     1.0000   1.0000   1.0000   1.0000   1.0000   1.0000   1.0000   0.0000
     0.0000   0.0000   0.0000   0.0000

     highest occupied, lowest unoccupied level (ev):     0.0517    1.1947

!    total energy              =    -282.12353756 Ry
     estimated scf accuracy    <       0.00000086 Ry

     The total energy is the sum of the following terms:
     one-electron contribution =    -739.28696050 Ry
     hartree contribution      =     367.59385241 Ry
     xc contribution           =     -31.77861515 Ry
     ewald contribution        =     121.34818568 Ry

     convergence has been achieved in   9 iterations

     Forces acting on atoms (cartesian axes, Ry/au):

     atom    1 type  1   force =     0.00000000   -0.00000000   -0.01630794
     atom    2 type  1   force =     0.00000000    0.00000000    0.01630794
     The non-local contrib.  to forces
     atom    1 type  1   force =     0.00000000    0.00000000    0.58246071
     atom    2 type  1   force =     0.00000000    0.00000000   -0.58276177
     The ionic contribution  to forces
     atom    1 type  1   force =    -0.00000001    0.00000001  -36.89128809
     atom    2 type  1   force =     0.00000001   -0.00000001   36.89128809
     The local contribution  to forces
     atom    1 type  1   force =    -0.00000000   -0.00000000   36.29601981
     atom    2 type  1   force =     0.00000017   -0.00000010  -36.29577637
     The core correction contribution to forces
     atom    1 type  1   force =     0.00000000    0.00000000    0.00000000
     atom    2 type  1   force =     0.00000000    0.00000000    0.00000000
     The Hubbard contrib.    to forces
     atom    1 type  1   force =     0.00000000    0.00000000    0.00000000
     atom    2 type  1   force =     0.00000000    0.00000000    0.00000000
     The SCF correction term to forces
     atom    1 type  1   force =    -0.00000000    0.00000000   -0.00000000
     atom    2 type  1   force =    -0.00000000    0.00000000    0.00351706

     Total force =     0.016308     Total SCF correction =     0.003517
     SCF correction compared to forces is large: reduce conv_thr to get better values


     Computing stress (Cartesian axis) and pressure

          total   stress  (Ry/bohr**3)                   (kbar)     P=        9.15
   0.00007285   0.00000000   0.00000000           10.72        0.00        0.00
   0.00000000   0.00007285   0.00000000            0.00       10.72        0.00
   0.00000000   0.00000000   0.00004081            0.00        0.00        6.00

     kinetic stress (kbar)   9041.24     -0.00      0.00
                               -0.00   9041.24      0.00
                                0.00      0.00   9070.05

     local   stress (kbar) -66889.58      0.00     -0.00
                                0.00 -66889.58      0.00
                               -0.00      0.00  66085.97

     nonloc. stress (kbar)  -2386.05     -0.00      0.00
                                0.00  -2386.05     -0.00
                                0.00      0.00  -2364.01

     hartree stress (kbar)  34070.02      0.00     -0.00
                                0.00  34070.02     -0.00
                               -0.00     -0.00 -29933.47

     exc-cor stress (kbar)  -1037.83     -0.00      0.00
                               -0.00  -1037.83     -0.00
                                0.00     -0.00  -1039.27

     corecor stress (kbar)      0.00      0.00      0.00
                                0.00      0.00      0.00
                                0.00      0.00      0.00

     ewald   stress (kbar)  27212.91     -0.00      0.00
                               -0.00  27212.91     -0.00
                                0.00     -0.00 -41813.27

     hubbard stress (kbar)      0.00      0.00      0.00
                                0.00      0.00      0.00
                                0.00      0.00      0.00

     DFT-D   stress (kbar)      0.00      0.00      0.00
                                0.00      0.00      0.00
                                0.00      0.00      0.00

     XDM     stress (kbar)      0.00      0.00      0.00
                                0.00      0.00      0.00
                                0.00      0.00      0.00

     dft-nl  stress (kbar)      0.00      0.00      0.00
                                0.00      0.00      0.00
                                0.00      0.00      0.00

     TS-vdW  stress (kbar)      0.00      0.00      0.00
                                0.00      0.00      0.00
                                0.00      0.00      0.00


     Energy error            =      8.6E-04
     Gradient error          =      1.6E-02
     Cell gradient error     =      7.3E-05


     number of scf cycles    =   2
     number of bfgs steps    =   1

     enthalpy old            =    -282.1226776367 Ry
     enthalpy new            =    -282.1235375571 Ry

     CASE: enthalpy_new < enthalpy_old


     WARNING: bfgs curvature condition failed, Theta= 0.981
     new trust radius        =       0.0244844228 bohr
     new conv_thr            =       0.0000000860 Ry

     new unit-cell volume =   1422.98224 a.u.^3 (   210.86421 Ang^3 )
     density =      0.18917 g/cm^3

CELL_PARAMETERS (alat=  7.57780176)
   1.004722483   0.000000000   0.000000000
  -0.502361242   0.870115194   0.000000000
   0.000000000   0.000000000   3.740648379

ATOMIC_POSITIONS (crystal)
Sb            0.0000000000        0.0000000000        0.5000000000    0   0   0
Sb            0.3333333330        0.6666666670        0.6096490216



     Writing output data file ./tmp/Sb.save/
     NEW-OLD atomic charge density approx. for the potential

     negative rho (up, down):  1.172E-05 0.000E+00
     extrapolated charge   30.16067, renormalised to   30.00000

     total cpu time spent up to now is       22.9 secs

     Self-consistent Calculation

     iteration #  1     ecut=    60.00 Ry     beta= 0.70
     Davidson diagonalization with overlap
     c_bands:  1 eigenvalues not converged
     ethr =  1.00E-06,  avg # of iterations = 11.5

     total cpu time spent up to now is       25.0 secs

     total energy              =    -282.10616125 Ry
     estimated scf accuracy    <       0.01207103 Ry

     iteration #  2     ecut=    60.00 Ry     beta= 0.70
     Davidson diagonalization with overlap
     ethr =  4.02E-05,  avg # of iterations =  8.6

     total cpu time spent up to now is       26.4 secs

     total energy              =    -282.12318046 Ry
     estimated scf accuracy    <       0.03187610 Ry

     iteration #  3     ecut=    60.00 Ry     beta= 0.70
     Davidson diagonalization with overlap
     ethr =  4.02E-05,  avg # of iterations =  4.0

     total cpu time spent up to now is       27.4 secs

     total energy              =    -282.12508729 Ry
     estimated scf accuracy    <       0.00473499 Ry

     iteration #  4     ecut=    60.00 Ry     beta= 0.70
     Davidson diagonalization with overlap
     ethr =  1.58E-05,  avg # of iterations =  2.3

     total cpu time spent up to now is       28.3 secs

     total energy              =    -282.12490043 Ry
     estimated scf accuracy    <       0.00286069 Ry

     iteration #  5     ecut=    60.00 Ry     beta= 0.70
     Davidson diagonalization with overlap
     ethr =  9.54E-06,  avg # of iterations =  1.9

     total cpu time spent up to now is       29.2 secs

     total energy              =    -282.12456120 Ry
     estimated scf accuracy    <       0.00173215 Ry

     iteration #  6     ecut=    60.00 Ry     beta= 0.70
     Davidson diagonalization with overlap
     ethr =  5.77E-06,  avg # of iterations =  4.5

     total cpu time spent up to now is       30.1 secs

     total energy              =    -282.12448195 Ry
     estimated scf accuracy    <       0.00073405 Ry

     iteration #  7     ecut=    60.00 Ry     beta= 0.70
     Davidson diagonalization with overlap
     ethr =  2.45E-06,  avg # of iterations =  3.1

     total cpu time spent up to now is       31.0 secs

     total energy              =    -282.12431488 Ry
     estimated scf accuracy    <       0.00040897 Ry

     iteration #  8     ecut=    60.00 Ry     beta= 0.70
     Davidson diagonalization with overlap
     ethr =  1.36E-06,  avg # of iterations =  5.6

     total cpu time spent up to now is       31.9 secs

     total energy              =    -282.12434511 Ry
     estimated scf accuracy    <       0.00003534 Ry

     iteration #  9     ecut=    60.00 Ry     beta= 0.70
     Davidson diagonalization with overlap
     ethr =  1.18E-07,  avg # of iterations =  2.2

     total cpu time spent up to now is       32.8 secs

     total energy              =    -282.12434812 Ry
     estimated scf accuracy    <       0.00000436 Ry

     iteration # 10     ecut=    60.00 Ry     beta= 0.70
     Davidson diagonalization with overlap
     ethr =  1.45E-08,  avg # of iterations =  2.6

     total cpu time spent up to now is       33.6 secs

     total energy              =    -282.12434783 Ry
     estimated scf accuracy    <       0.00000119 Ry

     iteration # 11     ecut=    60.00 Ry     beta= 0.70
     Davidson diagonalization with overlap
     ethr =  3.98E-09,  avg # of iterations =  2.7

     total cpu time spent up to now is       34.5 secs

     End of self-consistent calculation

          k = 0.0000 0.0000 0.0000 ( 11133 PWs)   bands (ev):

   -28.7496 -28.7496 -28.6642 -28.6642 -28.6036 -28.5396 -28.5396 -28.4857
   -28.4490 -28.4490 -11.6645  -6.4643  -0.8371   0.0575   0.0575   1.7728
     2.8744   2.8744   4.3095   4.3478

     occupation numbers 
     1.0000   1.0000   1.0000   1.0000   1.0000   1.0000   1.0000   1.0000
     1.0000   1.0000   1.0000   1.0000   1.0000   1.0000   1.0000   0.0000
     0.0000   0.0000   0.0000   0.0000

          k = 0.0000 0.1277 0.0000 ( 11102 PWs)   bands (ev):

   -28.7486 -28.7426 -28.6633 -28.6596 -28.6015 -28.5428 -28.5397 -28.4876
   -28.4572 -28.4493 -11.5239  -6.4434  -1.1175  -0.7679  -0.2539   2.1674
     2.9994   3.1570   4.4842   4.5379

     occupation numbers 
     1.0000   1.0000   1.0000   1.0000   1.0000   1.0000   1.0000   1.0000
     1.0000   1.0000   1.0000   1.0000   1.0000   1.0000   1.0000   0.0000
     0.0000   0.0000   0.0000   0.0000

          k = 0.0000 0.2554 0.0000 ( 11052 PWs)   bands (ev):

   -28.7459 -28.7229 -28.6606 -28.6468 -28.5953 -28.5522 -28.5411 -28.4941
   -28.4790 -28.4501 -11.1103  -6.4996  -2.5562  -0.8341  -0.6733   1.4313
     3.5303   3.5737   4.7686   5.0068

     occupation numbers 
     1.0000   1.0000   1.0000   1.0000   1.0000   1.0000   1.0000   1.0000
     1.0000   1.0000   1.0000   1.0000   1.0000   1.0000   1.0000   0.0000
     0.0000   0.0000   0.0000   0.0000

          k = 0.0000 0.3831 0.0000 ( 11028 PWs)   bands (ev):

   -28.7427 -28.6973 -28.6535 -28.6281 -28.5870 -28.5668 -28.5456 -28.5157
   -28.4950 -28.4512 -10.4610  -6.9668  -3.2574  -1.3221  -0.9567   1.1758
     3.0222   3.6172   5.3213   5.4550

     occupation numbers 
     1.0000   1.0000   1.0000   1.0000   1.0000   1.0000   1.0000   1.0000
     1.0000   1.0000   1.0000   1.0000   1.0000   1.0000   1.0000   0.0000
     0.0000   0.0000   0.0000   0.0000

          k = 0.0000 0.5108 0.0000 ( 11058 PWs)   bands (ev):

   -28.7406 -28.6821 -28.6327 -28.6068 -28.5911 -28.5855 -28.5497 -28.5390
   -28.5002 -28.4521  -9.7429  -7.7530  -3.2070  -1.5869  -1.5337   1.4968
     2.4070   3.5770   5.0286   6.4019

     occupation numbers 
     1.0000   1.0000   1.0000   1.0000   1.0000   1.0000   1.0000   1.0000
     1.0000   1.0000   1.0000   1.0000   1.0000   1.0000   1.0000   0.0000
     0.0000   0.0000   0.0000   0.0000

          k = 0.1106 0.1915 0.0000 ( 11091 PWs)   bands (ev):

   -28.7468 -28.7290 -28.6610 -28.6516 -28.5972 -28.5497 -28.5398 -28.4917
   -28.4725 -28.4500 -11.2464  -6.4572  -2.1154  -0.9887  -0.6615   2.2546
     2.7713   3.7869   4.7709   4.8440

     occupation numbers 
     1.0000   1.0000   1.0000   1.0000   1.0000   1.0000   1.0000   1.0000
     1.0000   1.0000   1.0000   1.0000   1.0000   1.0000   1.0000   0.0000
     0.0000   0.0000   0.0000   0.0000

          k = 0.1106 0.3192 0.0000 ( 11059 PWs)   bands (ev):

   -28.7440 -28.7049 -28.6565 -28.6372 -28.5888 -28.5632 -28.5406 -28.5056
   -28.4925 -28.4512 -10.7103  -6.7152  -2.9666  -1.7791  -0.6862   1.7942
     3.0597   3.6509   5.1534   5.3669

     occupation numbers 
     1.0000   1.0000   1.0000   1.0000   1.0000   1.0000   1.0000   1.0000
     1.0000   1.0000   1.0000   1.0000   1.0000   1.0000   1.0000   0.0000
     0.0000   0.0000   0.0000   0.0000

          k = 0.1106 0.4469 0.0000 ( 11053 PWs)   bands (ev):

   -28.7415 -28.6814 -28.6442 -28.6184 -28.5853 -28.5786 -28.5453 -28.5325
   -28.5009 -28.4525  -9.9864  -7.4148  -3.2178  -2.1454  -1.1487   1.7917
     2.8176   3.3045   5.4346   6.0236

     occupation numbers 
     1.0000   1.0000   1.0000   1.0000   1.0000   1.0000   1.0000   1.0000
     1.0000   1.0000   1.0000   1.0000   1.0000   1.0000   1.0000   0.0000
     0.0000   0.0000   0.0000   0.0000

          k = 0.1106 0.5746 0.0000 ( 11074 PWs)   bands (ev):

   -28.7405 -28.6743 -28.6228 -28.6083 -28.5976 -28.5872 -28.5494 -28.5420
   -28.5040 -28.4530  -9.4756  -7.9756  -3.1990  -2.0593  -1.6341   2.1296
     2.3690   3.2784   5.1425   7.1058

     occupation numbers 
     1.0000   1.0000   1.0000   1.0000   1.0000   1.0000   1.0000   1.0000
     1.0000   1.0000   1.0000   1.0000   1.0000   1.0000   1.0000   0.0000
     0.0000   0.0000   0.0000   0.0000

          k = 0.2212 0.3831 0.0000 ( 11049 PWs)   bands (ev):

   -28.7421 -28.6787 -28.6496 -28.6240 -28.5822 -28.5790 -28.5378 -28.5320
   -28.5024 -28.4531 -10.0796  -7.2454  -2.8957  -2.8668  -0.9445   2.1864
     2.3789   3.9670   5.8281   5.9594

     occupation numbers 
     1.0000   1.0000   1.0000   1.0000   1.0000   1.0000   1.0000   1.0000
     1.0000   1.0000   1.0000   1.0000   1.0000   1.0000   1.0000   0.0000
     0.0000   0.0000   0.0000   0.0000

          k = 0.2212 0.5108 0.0000 ( 11061 PWs)   bands (ev):

   -28.7407 -28.6592 -28.6346 -28.6087 -28.6030 -28.5755 -28.5581 -28.5338
   -28.5105 -28.4545  -9.3445  -7.9796  -3.4605  -2.4339  -1.4914   1.6618
     2.9759   3.6705   6.0331   6.8801

     occupation numbers 
     1.0000   1.0000   1.0000   1.0000   1.0000   1.0000   1.0000   1.0000
     1.0000   1.0000   1.0000   1.0000   1.0000   1.0000   1.0000   0.0000
     0.0000   0.0000   0.0000   0.0000

          k = 0.3318 0.5746 0.0000 ( 11028 PWs)   bands (ev):

   -28.7404 -28.6349 -28.6349 -28.6282 -28.5838 -28.5838 -28.5717 -28.5223
   -28.5222 -28.4555  -8.6379  -8.6379  -3.7742  -1.9526  -1.9526   1.2950
     3.5372   3.5373   6.5805   7.5055

     occupation numbers 
     1.0000   1.0000   1.0000   1.0000   1.0000   1.0000   1.0000   1.0000
     1.0000   1.0000   1.0000   1.0000   1.0000   1.0000   1.0000   0.0000
     0.0000   0.0000   0.0000   0.0000

     highest occupied, lowest unoccupied level (ev):     0.0575    1.1758

!    total energy              =    -282.12434813 Ry
     estimated scf accuracy    <          5.8E-09 Ry

     The total energy is the sum of the following terms:
     one-electron contribution =    -734.66423128 Ry
     hartree contribution      =     365.26228322 Ry
     xc contribution           =     -31.76570815 Ry
     ewald contribution        =     119.04330808 Ry

     convergence has been achieved in  11 iterations

     Forces acting on atoms (cartesian axes, Ry/au):

     atom    1 type  1   force =     0.00000000    0.00000000   -0.00979896
     atom    2 type  1   force =     0.00000000    0.00000000    0.00979896
     The non-local contrib.  to forces
     atom    1 type  1   force =     0.00000000   -0.00000000    0.57610593
     atom    2 type  1   force =     0.00000000   -0.00000000   -0.57630254
     The ionic contribution  to forces
     atom    1 type  1   force =    -0.00000001    0.00000001  -36.69455472
     atom    2 type  1   force =     0.00000001   -0.00000001   36.69455472
     The local contribution  to forces
     atom    1 type  1   force =     0.00000000   -0.00000000   36.10843924
     atom    2 type  1   force =     0.00000017   -0.00000010  -36.10841608
     The core correction contribution to forces
     atom    1 type  1   force =     0.00000000    0.00000000    0.00000000
     atom    2 type  1   force =     0.00000000    0.00000000    0.00000000
     The Hubbard contrib.    to forces
     atom    1 type  1   force =     0.00000000    0.00000000    0.00000000
     atom    2 type  1   force =     0.00000000    0.00000000    0.00000000
     The SCF correction term to forces
     atom    1 type  1   force =    -0.00000000    0.00000000    0.00000000
     atom    2 type  1   force =    -0.00000000    0.00000000   -0.00007342

     Total force =     0.009799     Total SCF correction =     0.000073


     Computing stress (Cartesian axis) and pressure

          total   stress  (Ry/bohr**3)                   (kbar)     P=        6.72
   0.00005760  -0.00000000   0.00000000            8.47       -0.00        0.00
  -0.00000000   0.00005760   0.00000000           -0.00        8.47        0.00
   0.00000000   0.00000000   0.00002177            0.00        0.00        3.20

     kinetic stress (kbar)   8991.77     -0.00      0.00
                               -0.00   8991.77      0.00
                                0.00     -0.00   9018.52

     local   stress (kbar) -65969.53      0.00     -0.00
                                0.00 -65969.53      0.00
                               -0.00      0.00  65088.60

     nonloc. stress (kbar)  -2374.13     -0.00      0.00
                                0.00  -2374.13      0.00
                                0.00     -0.00  -2352.75

     hartree stress (kbar)  33618.88      0.00      0.00
                                0.00  33618.88     -0.00
                                0.00     -0.00 -29477.66

     exc-cor stress (kbar)  -1031.88     -0.00      0.00
                               -0.00  -1031.88     -0.00
                                0.00     -0.00  -1033.25

     corecor stress (kbar)      0.00      0.00      0.00
                                0.00      0.00      0.00
                                0.00      0.00      0.00

     ewald   stress (kbar)  26773.36     -0.00      0.00
                               -0.00  26773.36     -0.00
                                0.00     -0.00 -41240.26

     hubbard stress (kbar)      0.00      0.00      0.00
                                0.00      0.00      0.00
                                0.00      0.00      0.00

     DFT-D   stress (kbar)      0.00      0.00      0.00
                                0.00      0.00      0.00
                                0.00      0.00      0.00

     XDM     stress (kbar)      0.00      0.00      0.00
                                0.00      0.00      0.00
                                0.00      0.00      0.00

     dft-nl  stress (kbar)      0.00      0.00      0.00
                                0.00      0.00      0.00
                                0.00      0.00      0.00

     TS-vdW  stress (kbar)      0.00      0.00      0.00
                                0.00      0.00      0.00
                                0.00      0.00      0.00


     Energy error            =      8.1E-04
     Gradient error          =      9.8E-03
     Cell gradient error     =      5.8E-05


     number of scf cycles    =   3
     number of bfgs steps    =   2

     enthalpy old            =    -282.1235375571 Ry
     enthalpy new            =    -282.1243481342 Ry

     CASE: enthalpy_new < enthalpy_old

     new trust radius        =       0.0367266342 bohr
     new conv_thr            =       0.0000000811 Ry

     new unit-cell volume =   1436.64300 a.u.^3 (   212.88853 Ang^3 )
     density =      0.18737 g/cm^3

CELL_PARAMETERS (alat=  7.57780176)
   1.009533679  -0.000000000   0.000000000
  -0.504766839   0.874281812   0.000000000
   0.000000000   0.000000000   3.740648379

ATOMIC_POSITIONS (crystal)
Sb            0.0000000000        0.0000000000        0.5000000000    0   0   0
Sb            0.3333333330        0.6666666670        0.6109446815



     Writing output data file ./tmp/Sb.save/
     NEW-OLD atomic charge density approx. for the potential

     negative rho (up, down):  2.421E-05 0.000E+00
     extrapolated charge   30.28413, renormalised to   30.00000

     total cpu time spent up to now is       36.6 secs

     Self-consistent Calculation

     iteration #  1     ecut=    60.00 Ry     beta= 0.70
     Davidson diagonalization with overlap
     ethr =  1.00E-06,  avg # of iterations = 11.7

     total cpu time spent up to now is       39.0 secs

     total energy              =    -282.05737950 Ry
     estimated scf accuracy    <       0.04478588 Ry

     iteration #  2     ecut=    60.00 Ry     beta= 0.70
     Davidson diagonalization with overlap
     ethr =  1.49E-04,  avg # of iterations =  7.9

     total cpu time spent up to now is       40.5 secs

     total energy              =    -282.12116845 Ry
     estimated scf accuracy    <       0.11513852 Ry

     iteration #  3     ecut=    60.00 Ry     beta= 0.70
     Davidson diagonalization with overlap
     ethr =  1.49E-04,  avg # of iterations =  4.9

     total cpu time spent up to now is       41.7 secs

     total energy              =    -282.12810775 Ry
     estimated scf accuracy    <       0.01789944 Ry

     iteration #  4     ecut=    60.00 Ry     beta= 0.70
     Davidson diagonalization with overlap
     ethr =  5.97E-05,  avg # of iterations =  2.0

     total cpu time spent up to now is       42.5 secs

     total energy              =    -282.12727225 Ry
     estimated scf accuracy    <       0.01152235 Ry

     iteration #  5     ecut=    60.00 Ry     beta= 0.70
     Davidson diagonalization with overlap
     ethr =  3.84E-05,  avg # of iterations =  1.8

     total cpu time spent up to now is       43.3 secs

     total energy              =    -282.12610888 Ry
     estimated scf accuracy    <       0.00655292 Ry

     iteration #  6     ecut=    60.00 Ry     beta= 0.70
     Davidson diagonalization with overlap
     ethr =  2.18E-05,  avg # of iterations =  5.1

     total cpu time spent up to now is       44.3 secs

     total energy              =    -282.12595802 Ry
     estimated scf accuracy    <       0.00302606 Ry

     iteration #  7     ecut=    60.00 Ry     beta= 0.70
     Davidson diagonalization with overlap
     ethr =  1.01E-05,  avg # of iterations =  1.8

     total cpu time spent up to now is       45.1 secs

     total energy              =    -282.12538671 Ry
     estimated scf accuracy    <       0.00219596 Ry

     iteration #  8     ecut=    60.00 Ry     beta= 0.70
     Davidson diagonalization with overlap
     ethr =  7.32E-06,  avg # of iterations =  3.2

     total cpu time spent up to now is       46.0 secs

     total energy              =    -282.12516128 Ry
     estimated scf accuracy    <       0.00079039 Ry

     iteration #  9     ecut=    60.00 Ry     beta= 0.70
     Davidson diagonalization with overlap
     c_bands:  1 eigenvalues not converged
     ethr =  2.63E-06,  avg # of iterations =  7.2

     total cpu time spent up to now is       47.1 secs

     total energy              =    -282.12518170 Ry
     estimated scf accuracy    <       0.00013043 Ry

     iteration # 10     ecut=    60.00 Ry     beta= 0.70
     Davidson diagonalization with overlap
     ethr =  4.35E-07,  avg # of iterations =  3.3

     total cpu time spent up to now is       48.0 secs

     total energy              =    -282.12517062 Ry
     estimated scf accuracy    <       0.00003419 Ry

     iteration # 11     ecut=    60.00 Ry     beta= 0.70
     Davidson diagonalization with overlap
     ethr =  1.14E-07,  avg # of iterations =  2.3

     total cpu time spent up to now is       48.9 secs

     End of self-consistent calculation

          k = 0.0000 0.0000 0.0000 ( 11133 PWs)   bands (ev):

   -28.7603 -28.7603 -28.6817 -28.6817 -28.6241 -28.5658 -28.5658 -28.5141
   -28.4789 -28.4789 -11.5757  -6.5210  -0.8793   0.0454   0.0454   1.7043
     2.8088   2.8088   4.2760   4.2908

     occupation numbers 
     1.0000   1.0000   1.0000   1.0000   1.0000   1.0000   1.0000   1.0000
     1.0000   1.0000   1.0000   1.0000   1.0000   1.0000   1.0000   0.0000
     0.0000   0.0000   0.0000   0.0000

          k = 0.0000 0.1271 0.0000 ( 11102 PWs)   bands (ev):

   -28.7594 -28.7538 -28.6809 -28.6774 -28.6222 -28.5689 -28.5660 -28.5158
   -28.4866 -28.4791 -11.4377  -6.5028  -1.1095  -0.8123  -0.2587   2.1069
     2.9111   3.0779   4.4329   4.4960

     occupation numbers 
     1.0000   1.0000   1.0000   1.0000   1.0000   1.0000   1.0000   1.0000
     1.0000   1.0000   1.0000   1.0000   1.0000   1.0000   1.0000   0.0000
     0.0000   0.0000   0.0000   0.0000

          k = 0.0000 0.2542 0.0000 ( 11052 PWs)   bands (ev):

   -28.7569 -28.7355 -28.6783 -28.6655 -28.6164 -28.5776 -28.5672 -28.5215
   -28.5073 -28.4799 -11.0321  -6.5606  -2.5218  -0.8269  -0.7233   1.3831
     3.4307   3.4839   4.7255   4.9459

     occupation numbers 
     1.0000   1.0000   1.0000   1.0000   1.0000   1.0000   1.0000   1.0000
     1.0000   1.0000   1.0000   1.0000   1.0000   1.0000   1.0000   0.0000
     0.0000   0.0000   0.0000   0.0000

          k = 0.0000 0.3813 0.0000 ( 11028 PWs)   bands (ev):

   -28.7539 -28.7117 -28.6714 -28.6482 -28.6089 -28.5912 -28.5711 -28.5406
   -28.5234 -28.4809 -10.3963  -7.0041  -3.2286  -1.3056  -1.0041   1.1338
     2.9621   3.5107   5.2551   5.3939

     occupation numbers 
     1.0000   1.0000   1.0000   1.0000   1.0000   1.0000   1.0000   1.0000
     1.0000   1.0000   1.0000   1.0000   1.0000   1.0000   1.0000   0.0000
     0.0000   0.0000   0.0000   0.0000

          k = 0.0000 0.5084 0.0000 ( 11058 PWs)   bands (ev):

   -28.7519 -28.6981 -28.6512 -28.6284 -28.6135 -28.6086 -28.5738 -28.5628
   -28.5284 -28.4816  -9.6961  -7.7524  -3.2060  -1.5656  -1.5652   1.4623
     2.3393   3.4708   4.9761   6.3306

     occupation numbers 
     1.0000   1.0000   1.0000   1.0000   1.0000   1.0000   1.0000   1.0000
     1.0000   1.0000   1.0000   1.0000   1.0000   1.0000   1.0000   0.0000
     0.0000   0.0000   0.0000   0.0000

          k = 0.1101 0.1906 0.0000 ( 11091 PWs)   bands (ev):

   -28.7577 -28.7411 -28.6788 -28.6699 -28.6182 -28.5753 -28.5660 -28.5195
   -28.5010 -28.4797 -11.1655  -6.5192  -2.0883  -0.9834  -0.7054   2.1845
     2.6967   3.6815   4.7147   4.8007

     occupation numbers 
     1.0000   1.0000   1.0000   1.0000   1.0000   1.0000   1.0000   1.0000
     1.0000   1.0000   1.0000   1.0000   1.0000   1.0000   1.0000   0.0000
     0.0000   0.0000   0.0000   0.0000

          k = 0.1101 0.3177 0.0000 ( 11059 PWs)   bands (ev):

   -28.7552 -28.7187 -28.6744 -28.6565 -28.6104 -28.5879 -28.5667 -28.5313
   -28.5209 -28.4809 -10.6402  -6.7671  -2.9316  -1.7584  -0.7344   1.7328
     2.9712   3.5663   5.1051   5.3035

     occupation numbers 
     1.0000   1.0000   1.0000   1.0000   1.0000   1.0000   1.0000   1.0000
     1.0000   1.0000   1.0000   1.0000   1.0000   1.0000   1.0000   0.0000
     0.0000   0.0000   0.0000   0.0000

          k = 0.1101 0.4448 0.0000 ( 11053 PWs)   bands (ev):

   -28.7528 -28.6972 -28.6625 -28.6388 -28.6081 -28.6018 -28.5702 -28.5566
   -28.5290 -28.4820  -9.9326  -7.4317  -3.2014  -2.1206  -1.1860   1.7315
     2.7458   3.2205   5.3739   5.9593

     occupation numbers 
     1.0000   1.0000   1.0000   1.0000   1.0000   1.0000   1.0000   1.0000
     1.0000   1.0000   1.0000   1.0000   1.0000   1.0000   1.0000   0.0000
     0.0000   0.0000   0.0000   0.0000

          k = 0.1101 0.5719 0.0000 ( 11074 PWs)   bands (ev):

   -28.7518 -28.6909 -28.6417 -28.6298 -28.6194 -28.6101 -28.5722 -28.5671
   -28.5319 -28.4825  -9.4360  -7.9679  -3.1923  -2.0370  -1.6623   2.0581
     2.3174   3.1811   5.0990   7.0281

     occupation numbers 
     1.0000   1.0000   1.0000   1.0000   1.0000   1.0000   1.0000   1.0000
     1.0000   1.0000   1.0000   1.0000   1.0000   1.0000   1.0000   0.0000
     0.0000   0.0000   0.0000   0.0000

          k = 0.2201 0.3813 0.0000 ( 11049 PWs)   bands (ev):

   -28.7533 -28.6944 -28.6681 -28.6437 -28.6056 -28.6017 -28.5638 -28.5559
   -28.5302 -28.4825 -10.0232  -7.2730  -2.8774  -2.8269  -0.9889   2.1188
     2.3021   3.8562   5.7833   5.8988

     occupation numbers 
     1.0000   1.0000   1.0000   1.0000   1.0000   1.0000   1.0000   1.0000
     1.0000   1.0000   1.0000   1.0000   1.0000   1.0000   1.0000   0.0000
     0.0000   0.0000   0.0000   0.0000

          k = 0.2201 0.5084 0.0000 ( 11061 PWs)   bands (ev):

   -28.7521 -28.6768 -28.6540 -28.6296 -28.6239 -28.5990 -28.5804 -28.5596
   -28.5378 -28.4838  -9.3065  -7.9782  -3.4142  -2.4342  -1.5237   1.6045
     2.8859   3.5651   5.9929   6.8093

     occupation numbers 
     1.0000   1.0000   1.0000   1.0000   1.0000   1.0000   1.0000   1.0000
     1.0000   1.0000   1.0000   1.0000   1.0000   1.0000   1.0000   0.0000
     0.0000   0.0000   0.0000   0.0000

          k = 0.3302 0.5719 0.0000 ( 11028 PWs)   bands (ev):

   -28.7518 -28.6545 -28.6543 -28.6482 -28.6046 -28.6045 -28.5959 -28.5488
   -28.5488 -28.4847  -8.6186  -8.6185  -3.7134  -1.9745  -1.9743   1.2463
     3.4305   3.4306   6.5178   7.4293

     occupation numbers 
     1.0000   1.0000   1.0000   1.0000   1.0000   1.0000   1.0000   1.0000
     1.0000   1.0000   1.0000   1.0000   1.0000   1.0000   1.0000   0.0000
     0.0000   0.0000   0.0000   0.0000

     highest occupied, lowest unoccupied level (ev):     0.0454    1.1338

!    total energy              =    -282.12517802 Ry
     estimated scf accuracy    <       0.00000006 Ry

     The total energy is the sum of the following terms:
     one-electron contribution =    -727.06697382 Ry
     hartree contribution      =     361.43798099 Ry
     xc contribution           =     -31.74641125 Ry
     ewald contribution        =     115.25022606 Ry

     convergence has been achieved in  11 iterations

     Forces acting on atoms (cartesian axes, Ry/au):

     atom    1 type  1   force =    -0.00000000   -0.00000000    0.00100359
     atom    2 type  1   force =     0.00000000    0.00000000   -0.00100359
     The non-local contrib.  to forces
     atom    1 type  1   force =     0.00000000    0.00000000    0.56765973
     atom    2 type  1   force =     0.00000000    0.00000000   -0.56785353
     The ionic contribution  to forces
     atom    1 type  1   force =    -0.00000001    0.00000001  -36.33103738
     atom    2 type  1   force =     0.00000001   -0.00000001   36.33103738
     The local contribution  to forces
     atom    1 type  1   force =     0.00000000   -0.00000000   35.76457319
     atom    2 type  1   force =     0.00000017   -0.00000010  -35.76483295
     The core correction contribution to forces
     atom    1 type  1   force =     0.00000000    0.00000000    0.00000000
     atom    2 type  1   force =     0.00000000    0.00000000    0.00000000
     The Hubbard contrib.    to forces
     atom    1 type  1   force =     0.00000000    0.00000000    0.00000000
     atom    2 type  1   force =     0.00000000    0.00000000    0.00000000
     The SCF correction term to forces
     atom    1 type  1   force =    -0.00000000    0.00000000   -0.00000000
     atom    2 type  1   force =    -0.00000000    0.00000000    0.00057327

     Total force =     0.001004     Total SCF correction =     0.000573
     SCF correction compared to forces is large: reduce conv_thr to get better values


     Computing stress (Cartesian axis) and pressure

          total   stress  (Ry/bohr**3)                   (kbar)     P=        4.02
   0.00003966  -0.00000000   0.00000000            5.83       -0.00        0.00
   0.00000000   0.00003966   0.00000000            0.00        5.83        0.00
   0.00000000   0.00000000   0.00000271            0.00        0.00        0.40

     kinetic stress (kbar)   8905.25     -0.00     -0.00
                               -0.00   8905.25     -0.00
                               -0.00     -0.00   8929.24

     local   stress (kbar) -64429.14      0.00     -0.00
                                0.00 -64429.14      0.00
                               -0.00      0.00  63423.38

     nonloc. stress (kbar)  -2352.63     -0.00      0.00
                               -0.00  -2352.63      0.00
                                0.00      0.00  -2332.19

     hartree stress (kbar)  32862.63      0.00      0.00
                                0.00  32862.63     -0.00
                                0.00     -0.00 -28715.81

     exc-cor stress (kbar)  -1021.51     -0.00      0.00
                               -0.00  -1021.51     -0.00
                                0.00     -0.00  -1022.79

     corecor stress (kbar)      0.00      0.00      0.00
                                0.00      0.00      0.00
                                0.00      0.00      0.00

     ewald   stress (kbar)  26041.24     -0.00      0.00
                               -0.00  26041.24     -0.00
                                0.00     -0.00 -40281.43

     hubbard stress (kbar)      0.00      0.00      0.00
                                0.00      0.00      0.00
                                0.00      0.00      0.00

     DFT-D   stress (kbar)      0.00      0.00      0.00
                                0.00      0.00      0.00
                                0.00      0.00      0.00

     XDM     stress (kbar)      0.00      0.00      0.00
                                0.00      0.00      0.00
                                0.00      0.00      0.00

     dft-nl  stress (kbar)      0.00      0.00      0.00
                                0.00      0.00      0.00
                                0.00      0.00      0.00

     TS-vdW  stress (kbar)      0.00      0.00      0.00
                                0.00      0.00      0.00
                                0.00      0.00      0.00


     Energy error            =      8.3E-04
     Gradient error          =      1.0E-03
     Cell gradient error     =      4.0E-05


     number of scf cycles    =   4
     number of bfgs steps    =   3

     enthalpy old            =    -282.1243481342 Ry
     enthalpy new            =    -282.1251780244 Ry

     CASE: enthalpy_new < enthalpy_old

     new trust radius        =       0.0369207352 bohr
     new conv_thr            =       0.0000000100 Ry

     new unit-cell volume =   1450.67117 a.u.^3 (   214.96729 Ang^3 )
     density =      0.18556 g/cm^3

CELL_PARAMETERS (alat=  7.57780176)
   1.014450526  -0.000000000   0.000000000
  -0.507225263   0.878539926   0.000000000
   0.000000000   0.000000000   3.740648379

ATOMIC_POSITIONS (crystal)
Sb            0.0000000000        0.0000000000        0.5000000000    0   0   0
Sb            0.3333333330        0.6666666670        0.6117905840



     Writing output data file ./tmp/Sb.save/
     NEW-OLD atomic charge density approx. for the potential

     negative rho (up, down):  1.778E-05 0.000E+00
     extrapolated charge   30.28895, renormalised to   30.00000

     total cpu time spent up to now is       51.0 secs

     Self-consistent Calculation

     iteration #  1     ecut=    60.00 Ry     beta= 0.70
     Davidson diagonalization with overlap
     ethr =  1.00E-06,  avg # of iterations = 12.9

     total cpu time spent up to now is       53.4 secs

     total energy              =    -282.04209591 Ry
     estimated scf accuracy    <       0.05393388 Ry

     iteration #  2     ecut=    60.00 Ry     beta= 0.70
     Davidson diagonalization with overlap
     ethr =  1.80E-04,  avg # of iterations =  7.9

     total cpu time spent up to now is       55.1 secs

     total energy              =    -282.12109336 Ry
     estimated scf accuracy    <       0.13430075 Ry

     iteration #  3     ecut=    60.00 Ry     beta= 0.70
     Davidson diagonalization with overlap
     ethr =  1.80E-04,  avg # of iterations =  4.5

     total cpu time spent up to now is       56.1 secs

     total energy              =    -282.12869252 Ry
     estimated scf accuracy    <       0.02034644 Ry

     iteration #  4     ecut=    60.00 Ry     beta= 0.70
     Davidson diagonalization with overlap
     ethr =  6.78E-05,  avg # of iterations =  3.3

     total cpu time spent up to now is       57.0 secs

     total energy              =    -282.12806709 Ry
     estimated scf accuracy    <       0.01218503 Ry

     iteration #  5     ecut=    60.00 Ry     beta= 0.70
     Davidson diagonalization with overlap
     ethr =  4.06E-05,  avg # of iterations =  1.5

     total cpu time spent up to now is       57.8 secs

     total energy              =    -282.12666989 Ry
     estimated scf accuracy    <       0.00767831 Ry

     iteration #  6     ecut=    60.00 Ry     beta= 0.70
     Davidson diagonalization with overlap
     ethr =  2.56E-05,  avg # of iterations =  4.4

     total cpu time spent up to now is       58.8 secs

     total energy              =    -282.12644075 Ry
     estimated scf accuracy    <       0.00368164 Ry

     iteration #  7     ecut=    60.00 Ry     beta= 0.70
     Davidson diagonalization with overlap
     ethr =  1.23E-05,  avg # of iterations =  2.8

     total cpu time spent up to now is       59.6 secs

     total energy              =    -282.12569535 Ry
     estimated scf accuracy    <       0.00265656 Ry

     iteration #  8     ecut=    60.00 Ry     beta= 0.70
     Davidson diagonalization with overlap
     ethr =  8.86E-06,  avg # of iterations =  3.3

     total cpu time spent up to now is       60.5 secs

     total energy              =    -282.12560006 Ry
     estimated scf accuracy    <       0.00087121 Ry

     iteration #  9     ecut=    60.00 Ry     beta= 0.70
     Davidson diagonalization with overlap
     ethr =  2.90E-06,  avg # of iterations =  4.5

     total cpu time spent up to now is       61.4 secs

     total energy              =    -282.12547250 Ry
     estimated scf accuracy    <       0.00037533 Ry

     iteration # 10     ecut=    60.00 Ry     beta= 0.70
     Davidson diagonalization with overlap
     ethr =  1.25E-06,  avg # of iterations =  5.0

     total cpu time spent up to now is       62.3 secs

     total energy              =    -282.12549705 Ry
     estimated scf accuracy    <       0.00003480 Ry

     iteration # 11     ecut=    60.00 Ry     beta= 0.70
     Davidson diagonalization with overlap
     ethr =  1.16E-07,  avg # of iterations =  5.6

     total cpu time spent up to now is       63.3 secs

     total energy              =    -282.12550580 Ry
     estimated scf accuracy    <       0.00000004 Ry

     iteration # 12     ecut=    60.00 Ry     beta= 0.70
     Davidson diagonalization with overlap
     ethr =  1.17E-10,  avg # of iterations =  5.2

     total cpu time spent up to now is       64.6 secs

     total energy              =    -282.12550596 Ry
     estimated scf accuracy    <       0.00000003 Ry

     iteration # 13     ecut=    60.00 Ry     beta= 0.70
     Davidson diagonalization with overlap
     ethr =  1.16E-10,  avg # of iterations =  1.0

     total cpu time spent up to now is       65.4 secs

     total energy              =    -282.12550594 Ry
     estimated scf accuracy    <       0.00000003 Ry

     iteration # 14     ecut=    60.00 Ry     beta= 0.70
     Davidson diagonalization with overlap
     ethr =  1.13E-10,  avg # of iterations =  1.1

     total cpu time spent up to now is       66.1 secs

     total energy              =    -282.12550593 Ry
     estimated scf accuracy    <       0.00000002 Ry

     iteration # 15     ecut=    60.00 Ry     beta= 0.70
     Davidson diagonalization with overlap
     ethr =  5.94E-11,  avg # of iterations =  2.8

     total cpu time spent up to now is       67.1 secs

     total energy              =    -282.12550594 Ry
     estimated scf accuracy    <       0.00000003 Ry

     iteration # 16     ecut=    60.00 Ry     beta= 0.70
     Davidson diagonalization with overlap
     ethr =  5.94E-11,  avg # of iterations =  2.0

     total cpu time spent up to now is       68.1 secs

     End of self-consistent calculation

          k = 0.0000 0.0000 0.0000 ( 11133 PWs)   bands (ev):

   -28.7833 -28.7833 -28.7100 -28.7100 -28.6542 -28.6006 -28.6006 -28.5503
   -28.5165 -28.5165 -11.5140  -6.5712  -0.9134   0.0077   0.0077   1.6195
     2.7327   2.7327   4.2423   4.2436

     occupation numbers 
     1.0000   1.0000   1.0000   1.0000   1.0000   1.0000   1.0000   1.0000
     1.0000   1.0000   1.0000   1.0000   1.0000   1.0000   1.0000   0.0000
     0.0000   0.0000   0.0000   0.0000

          k = 0.0000 0.1265 0.0000 ( 11102 PWs)   bands (ev):

   -28.7824 -28.7771 -28.7091 -28.7059 -28.6524 -28.6034 -28.6007 -28.5520
   -28.5239 -28.5168 -11.3784  -6.5563  -1.1270  -0.8490  -0.2894   2.0347
     2.8158   2.9916   4.3875   4.4553

     occupation numbers 
     1.0000   1.0000   1.0000   1.0000   1.0000   1.0000   1.0000   1.0000
     1.0000   1.0000   1.0000   1.0000   1.0000   1.0000   1.0000   0.0000
     0.0000   0.0000   0.0000   0.0000

          k = 0.0000 0.2529 0.0000 ( 11052 PWs)   bands (ev):

   -28.7801 -28.7599 -28.7066 -28.6947 -28.6470 -28.6117 -28.6017 -28.5573
   -28.5435 -28.5175 -10.9803  -6.6192  -2.5104  -0.8459  -0.7677   1.3286
     3.3314   3.3924   4.6843   4.8926

     occupation numbers 
     1.0000   1.0000   1.0000   1.0000   1.0000   1.0000   1.0000   1.0000
     1.0000   1.0000   1.0000   1.0000   1.0000   1.0000   1.0000   0.0000
     0.0000   0.0000   0.0000   0.0000

          k = 0.0000 0.3794 0.0000 ( 11028 PWs)   bands (ev):

   -28.7774 -28.7377 -28.6997 -28.6784 -28.6403 -28.6246 -28.6050 -28.5747
   -28.5594 -28.5184 -10.3571  -7.0495  -3.2135  -1.3158  -1.0497   1.0891
     2.8996   3.4098   5.1956   5.3375

     occupation numbers 
     1.0000   1.0000   1.0000   1.0000   1.0000   1.0000   1.0000   1.0000
     1.0000   1.0000   1.0000   1.0000   1.0000   1.0000   1.0000   0.0000
     0.0000   0.0000   0.0000   0.0000

          k = 0.0000 0.5059 0.0000 ( 11058 PWs)   bands (ev):

   -28.7755 -28.7252 -28.6799 -28.6597 -28.6453 -28.6410 -28.6068 -28.5959
   -28.5642 -28.5190  -9.6734  -7.7686  -3.2106  -1.5965  -1.5712   1.4187
     2.2787   3.3721   4.9278   6.2647

     occupation numbers 
     1.0000   1.0000   1.0000   1.0000   1.0000   1.0000   1.0000   1.0000
     1.0000   1.0000   1.0000   1.0000   1.0000   1.0000   1.0000   0.0000
     0.0000   0.0000   0.0000   0.0000

          k = 0.1095 0.1897 0.0000 ( 11091 PWs)   bands (ev):

   -28.7809 -28.7652 -28.7071 -28.6988 -28.6487 -28.6095 -28.6007 -28.5554
   -28.5375 -28.5173 -11.1112  -6.5773  -2.0856  -1.0022  -0.7438   2.1111
     2.6128   3.5784   4.6660   4.7546

     occupation numbers 
     1.0000   1.0000   1.0000   1.0000   1.0000   1.0000   1.0000   1.0000
     1.0000   1.0000   1.0000   1.0000   1.0000   1.0000   1.0000   0.0000
     0.0000   0.0000   0.0000   0.0000

          k = 0.1095 0.3162 0.0000 ( 11059 PWs)   bands (ev):

   -28.7785 -28.7441 -28.7029 -28.6860 -28.6416 -28.6214 -28.6011 -28.5660
   -28.5568 -28.5183 -10.5959  -6.8221  -2.9150  -1.7620  -0.7800   1.6716
     2.8853   3.4786   5.0587   5.2461

     occupation numbers 
     1.0000   1.0000   1.0000   1.0000   1.0000   1.0000   1.0000   1.0000
     1.0000   1.0000   1.0000   1.0000   1.0000   1.0000   1.0000   0.0000
     0.0000   0.0000   0.0000   0.0000

          k = 0.1095 0.4427 0.0000 ( 11053 PWs)   bands (ev):

   -28.7763 -28.7242 -28.6912 -28.6692 -28.6403 -28.6342 -28.6037 -28.5900
   -28.5647 -28.5194  -9.9035  -7.4624  -3.1953  -2.1181  -1.2243   1.6747
     2.6740   3.1387   5.3163   5.8998

     occupation numbers 
     1.0000   1.0000   1.0000   1.0000   1.0000   1.0000   1.0000   1.0000
     1.0000   1.0000   1.0000   1.0000   1.0000   1.0000   1.0000   0.0000
     0.0000   0.0000   0.0000   0.0000

          k = 0.1095 0.5691 0.0000 ( 11074 PWs)   bands (ev):

   -28.7754 -28.7185 -28.6709 -28.6611 -28.6507 -28.6425 -28.6046 -28.6007
   -28.5676 -28.5198  -9.4198  -7.9786  -3.1950  -2.0361  -1.6909   1.9969
     2.2554   3.0938   5.0556   7.0127

     occupation numbers 
     1.0000   1.0000   1.0000   1.0000   1.0000   1.0000   1.0000   1.0000
     1.0000   1.0000   1.0000   1.0000   1.0000   1.0000   1.0000   0.0000
     0.0000   0.0000   0.0000   0.0000

          k = 0.2191 0.3794 0.0000 ( 11049 PWs)   bands (ev):

   -28.7768 -28.7213 -28.6971 -28.6735 -28.6381 -28.6338 -28.5981 -28.5891
   -28.5659 -28.5198  -9.9917  -7.3122  -2.8703  -2.8109  -1.0332   2.0568
     2.2337   3.7476   5.7285   5.8413

     occupation numbers 
     1.0000   1.0000   1.0000   1.0000   1.0000   1.0000   1.0000   1.0000
     1.0000   1.0000   1.0000   1.0000   1.0000   1.0000   1.0000   0.0000
     0.0000   0.0000   0.0000   0.0000

          k = 0.2191 0.5059 0.0000 ( 11061 PWs)   bands (ev):

   -28.7757 -28.7051 -28.6835 -28.6604 -28.6545 -28.6317 -28.6124 -28.5938
   -28.5731 -28.5210  -9.2918  -7.9946  -3.3902  -2.4424  -1.5578   1.5542
     2.8069   3.4665   5.9411   6.7415

     occupation numbers 
     1.0000   1.0000   1.0000   1.0000   1.0000   1.0000   1.0000   1.0000
     1.0000   1.0000   1.0000   1.0000   1.0000   1.0000   1.0000   0.0000
     0.0000   0.0000   0.0000   0.0000

          k = 0.3286 0.5691 0.0000 ( 11028 PWs)   bands (ev):

   -28.7754 -28.6841 -28.6841 -28.6780 -28.6353 -28.6353 -28.6293 -28.5835
   -28.5835 -28.5218  -8.6201  -8.6201  -3.6775  -1.9998  -1.9998   1.2046
     3.3375   3.3375   6.4576   7.3427

     occupation numbers 
     1.0000   1.0000   1.0000   1.0000   1.0000   1.0000   1.0000   1.0000
     1.0000   1.0000   1.0000   1.0000   1.0000   1.0000   1.0000   0.0000
     0.0000   0.0000   0.0000   0.0000

     highest occupied, lowest unoccupied level (ev):     0.0077    1.0891

!    total energy              =    -282.12550594 Ry
     estimated scf accuracy    <          2.7E-10 Ry

     The total energy is the sum of the following terms:
     one-electron contribution =    -720.38772119 Ry
     hartree contribution      =     358.05989611 Ry
     xc contribution           =     -31.73004068 Ry
     ewald contribution        =     111.93235982 Ry

     convergence has been achieved in  16 iterations

     Forces acting on atoms (cartesian axes, Ry/au):

     atom    1 type  1   force =     0.00000000    0.00000000    0.00677070
     atom    2 type  1   force =    -0.00000000   -0.00000000   -0.00677070
     The non-local contrib.  to forces
     atom    1 type  1   force =    -0.00000000   -0.00000000    0.55938791
     atom    2 type  1   force =    -0.00000000   -0.00000000   -0.55939157
     The ionic contribution  to forces
     atom    1 type  1   force =    -0.00000001    0.00000001  -35.93645385
     atom    2 type  1   force =     0.00000001   -0.00000001   35.93645385
     The local contribution  to forces
     atom    1 type  1   force =     0.00000000   -0.00000000   35.38390045
     atom    2 type  1   force =     0.00000017   -0.00000010  -35.38385936
     The core correction contribution to forces
     atom    1 type  1   force =     0.00000000    0.00000000    0.00000000
     atom    2 type  1   force =     0.00000000    0.00000000    0.00000000
     The Hubbard contrib.    to forces
     atom    1 type  1   force =     0.00000000    0.00000000    0.00000000
     atom    2 type  1   force =     0.00000000    0.00000000    0.00000000
[...]
         2           Sb  tau(   2) = (  0.3333333  0.6666667  0.6089632  )

     number of k points=    12
                       cart. coord. in units 2pi/alat
        k(    1) = (   0.0000000   0.0000000   0.0000000), wk =   0.0246914
        k(    2) = (   0.0000000   0.1245989   0.0000000), wk =   0.1481481
        k(    3) = (   0.0000000   0.2491978   0.0000000), wk =   0.1481481
        k(    4) = (   0.0000000   0.3737968   0.0000000), wk =   0.1481481
        k(    5) = (   0.0000000   0.4983957   0.0000000), wk =   0.1481481
        k(    6) = (   0.1079058   0.1868984   0.0000000), wk =   0.1481481
        k(    7) = (   0.1079058   0.3114973   0.0000000), wk =   0.2962963
        k(    8) = (   0.1079058   0.4360962   0.0000000), wk =   0.2962963
        k(    9) = (   0.1079058   0.5606951   0.0000000), wk =   0.1481481
        k(   10) = (   0.2158117   0.3737968   0.0000000), wk =   0.1481481
        k(   11) = (   0.2158117   0.4983957   0.0000000), wk =   0.2962963
        k(   12) = (   0.3237175   0.5606951   0.0000000), wk =   0.0493827

                       cryst. coord.
        k(    1) = (   0.0000000   0.0000000   0.0000000), wk =   0.0246914
        k(    2) = (  -0.0000000   0.1111111   0.0000000), wk =   0.1481481
        k(    3) = (  -0.0000000   0.2222222   0.0000000), wk =   0.1481481
        k(    4) = (  -0.0000000   0.3333333   0.0000000), wk =   0.1481481
        k(    5) = (  -0.0000000   0.4444444   0.0000000), wk =   0.1481481
        k(    6) = (   0.1111111   0.1111111   0.0000000), wk =   0.1481481
        k(    7) = (   0.1111111   0.2222222   0.0000000), wk =   0.2962963
        k(    8) = (   0.1111111   0.3333333   0.0000000), wk =   0.2962963
        k(    9) = (   0.1111111   0.4444444   0.0000000), wk =   0.1481481
        k(   10) = (   0.2222222   0.2222222   0.0000000), wk =   0.1481481
        k(   11) = (   0.2222222   0.3333333   0.0000000), wk =   0.2962963
        k(   12) = (   0.3333333   0.3333333   0.0000000), wk =   0.0493827

     Dense  grid:   371303 G-vectors     FFT dimensions: (  64,  64, 225)

     Smooth grid:    93889 G-vectors     FFT dimensions: (  40,  40, 144)

     Dynamical RAM for                 wfc:       0.89 MB

     Dynamical RAM for     wfc (w. buffer):      11.63 MB

     Dynamical RAM for           str. fact:       1.42 MB

     Dynamical RAM for           local pot:       0.67 MB

     Dynamical RAM for          nlocal pot:       1.61 MB

     Dynamical RAM for                qrad:       3.93 MB

     Dynamical RAM for          rho,v,vnew:       9.59 MB

     Dynamical RAM for               rhoin:       3.20 MB

     Dynamical RAM for            rho*nmix:      22.66 MB

     Dynamical RAM for           G-vectors:       5.49 MB

     Dynamical RAM for          h,s,v(r/c):       0.07 MB

     Dynamical RAM for          <psi|beta>:       0.01 MB

     Dynamical RAM for                 psi:       1.79 MB

     Dynamical RAM for                hpsi:       1.79 MB

     Dynamical RAM for      wfcinit/wfcrot:       1.80 MB

     Estimated static dynamical RAM per process >      71.94 MB

     Estimated max dynamical RAM per process >      75.60 MB

     Estimated total dynamical RAM >     302.42 MB

     Initial potential from superposition of free atoms

     starting charge   29.88029, renormalised to   30.00000

     negative rho (up, down):  4.249E-04 0.000E+00
     Starting wfcs are random

     total cpu time spent up to now is      231.5 secs

     Self-consistent Calculation

     iteration #  1     ecut=    60.00 Ry     beta= 0.70
     Davidson diagonalization with overlap
     c_bands:  1 eigenvalues not converged
     c_bands:  2 eigenvalues not converged
     c_bands:  3 eigenvalues not converged
     c_bands:  3 eigenvalues not converged
     c_bands:  2 eigenvalues not converged
     c_bands:  2 eigenvalues not converged
     c_bands:  2 eigenvalues not converged
     c_bands:  2 eigenvalues not converged
     c_bands:  2 eigenvalues not converged
     c_bands:  2 eigenvalues not converged
     c_bands:  2 eigenvalues not converged
     c_bands:  2 eigenvalues not converged
     ethr =  1.00E-06,  avg # of iterations = 20.0

     negative rho (up, down):  1.348E-05 0.000E+00

     total cpu time spent up to now is      239.8 secs

     total energy              =    -282.12294458 Ry
     estimated scf accuracy    <       0.02029134 Ry

     iteration #  2     ecut=    60.00 Ry     beta= 0.70
     Davidson diagonalization with overlap
     ethr =  6.76E-05,  avg # of iterations =  2.2

     negative rho (up, down):  1.385E-06 0.000E+00

     total cpu time spent up to now is      241.8 secs

     total energy              =    -282.12510187 Ry
     estimated scf accuracy    <       0.00366719 Ry

     iteration #  3     ecut=    60.00 Ry     beta= 0.70
     Davidson diagonalization with overlap
     ethr =  1.22E-05,  avg # of iterations =  4.7

     total cpu time spent up to now is      243.4 secs

     total energy              =    -282.12613236 Ry
     estimated scf accuracy    <       0.00075761 Ry

     iteration #  4     ecut=    60.00 Ry     beta= 0.70
     Davidson diagonalization with overlap
     ethr =  2.53E-06,  avg # of iterations =  4.2

     total cpu time spent up to now is      244.8 secs

     total energy              =    -282.12626716 Ry
     estimated scf accuracy    <       0.00000573 Ry

     iteration #  5     ecut=    60.00 Ry     beta= 0.70
     Davidson diagonalization with overlap
     ethr =  1.91E-08,  avg # of iterations =  3.4

     total cpu time spent up to now is      245.9 secs

     total energy              =    -282.12626831 Ry
     estimated scf accuracy    <       0.00000084 Ry

     iteration #  6     ecut=    60.00 Ry     beta= 0.70
     Davidson diagonalization with overlap
     ethr =  2.80E-09,  avg # of iterations =  2.5

     total cpu time spent up to now is      247.0 secs

     total energy              =    -282.12626828 Ry
     estimated scf accuracy    <       0.00000246 Ry

     iteration #  7     ecut=    60.00 Ry     beta= 0.70
     Davidson diagonalization with overlap
     ethr =  2.80E-09,  avg # of iterations =  2.0

     total cpu time spent up to now is      247.9 secs

     total energy              =    -282.12626858 Ry
     estimated scf accuracy    <       0.00000001 Ry

     iteration #  8     ecut=    60.00 Ry     beta= 0.70
     Davidson diagonalization with overlap
     ethr =  4.75E-11,  avg # of iterations =  3.1

     total cpu time spent up to now is      249.2 secs

     End of self-consistent calculation

          k = 0.0000 0.0000 0.0000 ( 11745 PWs)   bands (ev):

   -28.9558 -28.9558 -28.8846 -28.8846 -28.8203 -28.7736 -28.7736 -28.7215
   -28.6908 -28.6908 -11.6012  -6.6188  -0.9097  -0.3637  -0.3637   1.1882
     2.4251   2.4251   4.1245   4.1252

     occupation numbers 
     1.0000   1.0000   1.0000   1.0000   1.0000   1.0000   1.0000   1.0000
     1.0000   1.0000   1.0000   1.0000   1.0000   1.0000   1.0000   0.0000
     0.0000   0.0000   0.0000   0.0000

          k = 0.0000 0.1246 0.0000 ( 11769 PWs)   bands (ev):

   -28.9551 -28.9497 -28.8835 -28.8805 -28.8192 -28.7765 -28.7734 -28.7235
   -28.6977 -28.6912 -11.4710  -6.6230  -1.4373  -0.8589  -0.6418   1.7049
     2.4657   2.6877   4.2629   4.3076

     occupation numbers 
     1.0000   1.0000   1.0000   1.0000   1.0000   1.0000   1.0000   1.0000
     1.0000   1.0000   1.0000   1.0000   1.0000   1.0000   1.0000   0.0000
     0.0000   0.0000   0.0000   0.0000

          k = 0.0000 0.2492 0.0000 ( 11741 PWs)   bands (ev):

   -28.9532 -28.9330 -28.8800 -28.8692 -28.8157 -28.7849 -28.7732 -28.7311
   -28.7146 -28.6920 -11.0887  -6.7455  -2.7062  -1.1689  -0.8243   1.1189
     3.0656   3.1203   4.5578   4.7447

     occupation numbers 
     1.0000   1.0000   1.0000   1.0000   1.0000   1.0000   1.0000   1.0000
     1.0000   1.0000   1.0000   1.0000   1.0000   1.0000   1.0000   0.0000
     0.0000   0.0000   0.0000   0.0000

          k = 0.0000 0.3738 0.0000 ( 11722 PWs)   bands (ev):

   -28.9510 -28.9120 -28.8714 -28.8529 -28.8120 -28.7980 -28.7742 -28.7516
   -28.7273 -28.6930 -10.4915  -7.2391  -3.3080  -1.6171  -1.1505   0.9430
     2.7272   3.1953   5.0673   5.1970

     occupation numbers 
     1.0000   1.0000   1.0000   1.0000   1.0000   1.0000   1.0000   1.0000
     1.0000   1.0000   1.0000   1.0000   1.0000   1.0000   1.0000   0.0000
     0.0000   0.0000   0.0000   0.0000

          k = 0.0000 0.4984 0.0000 ( 11696 PWs)   bands (ev):

   -28.9494 -28.9003 -28.8506 -28.8344 -28.8184 -28.8144 -28.7770 -28.7702
   -28.7326 -28.6938  -9.8402  -7.9608  -3.2856  -1.8615  -1.6730   1.2101
     2.2083   3.1856   4.8353   6.1145

     occupation numbers 
     1.0000   1.0000   1.0000   1.0000   1.0000   1.0000   1.0000   1.0000
     1.0000   1.0000   1.0000   1.0000   1.0000   1.0000   1.0000   0.0000
     0.0000   0.0000   0.0000   0.0000

          k = 0.1079 0.1869 0.0000 ( 11733 PWs)   bands (ev):

   -28.9539 -28.9380 -28.8811 -28.8732 -28.8168 -28.7826 -28.7727 -28.7282
   -28.7097 -28.6918 -11.2143  -6.6840  -2.3235  -1.2936  -0.7918   1.8826
     2.2767   3.3028   4.5238   4.5831

     occupation numbers 
     1.0000   1.0000   1.0000   1.0000   1.0000   1.0000   1.0000   1.0000
     1.0000   1.0000   1.0000   1.0000   1.0000   1.0000   1.0000   0.0000
     0.0000   0.0000   0.0000   0.0000

          k = 0.1079 0.3115 0.0000 ( 11734 PWs)   bands (ev):

   -28.9521 -28.9176 -28.8759 -28.8600 -28.8122 -28.7944 -28.7717 -28.7429
   -28.7246 -28.6930 -10.7199  -6.9956  -3.0495  -2.0129  -0.8764   1.5085
     2.6761   3.2231   4.9129   5.0816

     occupation numbers 
     1.0000   1.0000   1.0000   1.0000   1.0000   1.0000   1.0000   1.0000
     1.0000   1.0000   1.0000   1.0000   1.0000   1.0000   1.0000   0.0000
     0.0000   0.0000   0.0000   0.0000

          k = 0.1079 0.4361 0.0000 ( 11726 PWs)   bands (ev):

   -28.9504 -28.8988 -28.8628 -28.8430 -28.8131 -28.8078 -28.7731 -28.7655
   -28.7329 -28.6941 -10.0573  -7.6657  -3.2852  -2.3332  -1.3399   1.5543
     2.4983   2.9542   5.1732   5.7602

     occupation numbers 
     1.0000   1.0000   1.0000   1.0000   1.0000   1.0000   1.0000   1.0000
     1.0000   1.0000   1.0000   1.0000   1.0000   1.0000   1.0000   0.0000
     0.0000   0.0000   0.0000   0.0000

          k = 0.1079 0.5607 0.0000 ( 11688 PWs)   bands (ev):

   -28.9496 -28.8932 -28.8413 -28.8358 -28.8228 -28.8172 -28.7808 -28.7691
   -28.7359 -28.6946  -9.5982  -8.1707  -3.2987  -2.2526  -1.7671   1.9506
     1.9835   2.9694   4.9385   6.8101

     occupation numbers 
     1.0000   1.0000   1.0000   1.0000   1.0000   1.0000   1.0000   1.0000
     1.0000   1.0000   1.0000   1.0000   1.0000   1.0000   1.0000   0.0000
     0.0000   0.0000   0.0000   0.0000

          k = 0.2158 0.3738 0.0000 ( 11734 PWs)   bands (ev):

   -28.9510 -28.8954 -28.8697 -28.8465 -28.8108 -28.8072 -28.7676 -28.7652
   -28.7338 -28.6946 -10.1405  -7.5215  -3.0028  -2.9632  -1.1537   1.9588
     2.1414   3.4624   5.4499   5.6963

     occupation numbers 
     1.0000   1.0000   1.0000   1.0000   1.0000   1.0000   1.0000   1.0000
     1.0000   1.0000   1.0000   1.0000   1.0000   1.0000   1.0000   0.0000
     0.0000   0.0000   0.0000   0.0000

          k = 0.2158 0.4984 0.0000 ( 11723 PWs)   bands (ev):

   -28.9502 -28.8794 -28.8560 -28.8330 -28.8272 -28.8068 -28.7877 -28.7624
   -28.7414 -28.6958  -9.4703  -8.2025  -3.5430  -2.5486  -1.6672   1.5071
     2.7081   3.2657   5.6828   6.5629

     occupation numbers 
     1.0000   1.0000   1.0000   1.0000   1.0000   1.0000   1.0000   1.0000
     1.0000   1.0000   1.0000   1.0000   1.0000   1.0000   1.0000   0.0000
     0.0000   0.0000   0.0000   0.0000

          k = 0.3237 0.5607 0.0000 ( 11736 PWs)   bands (ev):

   -28.9502 -28.8587 -28.8586 -28.8480 -28.8092 -28.8092 -28.8050 -28.7520
   -28.7519 -28.6966  -8.8199  -8.8198  -3.8231  -2.1051  -2.1051   1.1831
     3.2263   3.2264   6.3066   6.9687

     occupation numbers 
     1.0000   1.0000   1.0000   1.0000   1.0000   1.0000   1.0000   1.0000
     1.0000   1.0000   1.0000   1.0000   1.0000   1.0000   1.0000   0.0000
     0.0000   0.0000   0.0000   0.0000

     highest occupied, lowest unoccupied level (ev):    -0.3637    0.9430

!    total energy              =    -282.12626858 Ry
     estimated scf accuracy    <          4.7E-10 Ry

     The total energy is the sum of the following terms:
     one-electron contribution =    -710.89002190 Ry
     hartree contribution      =     353.11851457 Ry
     xc contribution           =     -31.71902793 Ry
     ewald contribution        =     107.36426668 Ry

     convergence has been achieved in   8 iterations

     Forces acting on atoms (cartesian axes, Ry/au):

     atom    1 type  1   force =    -0.00000000   -0.00000000   -0.00001356
     atom    2 type  1   force =     0.00000000    0.00000000    0.00001356
     The non-local contrib.  to forces
     atom    1 type  1   force =     0.00000000    0.00000000    0.56451100
     atom    2 type  1   force =     0.00000000    0.00000000   -0.56453395
     The ionic contribution  to forces
     atom    1 type  1   force =    -0.00000001    0.00000001  -34.44263874
     atom    2 type  1   force =     0.00000001   -0.00000001   34.44263874
     The local contribution  to forces
     atom    1 type  1   force =     0.00000000   -0.00000000   33.87818941
     atom    2 type  1   force =     0.00000018   -0.00000010  -33.87800060
     The core correction contribution to forces
     atom    1 type  1   force =     0.00000000    0.00000000    0.00000000
     atom    2 type  1   force =     0.00000000    0.00000000    0.00000000
     The Hubbard contrib.    to forces
     atom    1 type  1   force =     0.00000000    0.00000000    0.00000000
     atom    2 type  1   force =     0.00000000    0.00000000    0.00000000
     The SCF correction term to forces
     atom    1 type  1   force =    -0.00000000    0.00000000   -0.00000000
     atom    2 type  1   force =     0.00000000   -0.00000000   -0.00010207

     Total force =     0.000014     Total SCF correction =     0.000102
     SCF correction compared to forces is large: reduce conv_thr to get better values


     Computing stress (Cartesian axis) and pressure

          total   stress  (Ry/bohr**3)                   (kbar)     P=        0.04
   0.00000050  -0.00000000  -0.00000000            0.07       -0.00       -0.00
  -0.00000000   0.00000050  -0.00000000           -0.00        0.07       -0.00
   0.00000000   0.00000000  -0.00000027            0.00        0.00       -0.04

     kinetic stress (kbar)   8553.86      0.00     -0.00
                                0.00   8553.86     -0.00
                               -0.00     -0.00   8584.49

     local   stress (kbar) -60070.58      0.00     -0.00
                                0.00 -60070.58      0.00
                               -0.00      0.00  58839.10

     nonloc. stress (kbar)  -2262.72      0.00      0.00
                                0.00  -2262.72      0.00
                                0.00      0.00  -2241.96

     hartree stress (kbar)  30666.81      0.00      0.00
                                0.00  30666.81     -0.00
                                0.00     -0.00 -26578.74

     exc-cor stress (kbar)   -981.11      0.00      0.00
                                0.00   -981.11     -0.00
                                0.00     -0.00   -982.40

     corecor stress (kbar)      0.00      0.00      0.00
                                0.00      0.00      0.00
                                0.00      0.00      0.00

     ewald   stress (kbar)  24093.81     -0.00      0.00
                               -0.00  24093.81     -0.00
                                0.00     -0.00 -37620.54

     hubbard stress (kbar)      0.00      0.00      0.00
                                0.00      0.00      0.00
                                0.00      0.00      0.00

     DFT-D   stress (kbar)      0.00      0.00      0.00
                                0.00      0.00      0.00
                                0.00      0.00      0.00

     XDM     stress (kbar)      0.00      0.00      0.00
                                0.00      0.00      0.00
                                0.00      0.00      0.00

     dft-nl  stress (kbar)      0.00      0.00      0.00
                                0.00      0.00      0.00
                                0.00      0.00      0.00

     TS-vdW  stress (kbar)      0.00      0.00      0.00
                                0.00      0.00      0.00
                                0.00      0.00      0.00



     Writing output data file ./tmp/Sb.save/

     init_run     :      1.91s CPU      2.03s WALL (       2 calls)
     electrons    :    191.19s CPU    210.85s WALL (      18 calls)
     update_pot   :     13.91s CPU     14.10s WALL (      16 calls)
     forces       :      6.13s CPU      6.56s WALL (      18 calls)
     stress       :     16.08s CPU     16.88s WALL (      18 calls)

     Called by init_run:
     wfcinit      :      0.54s CPU      0.60s WALL (       2 calls)
     wfcinit:atom :      0.00s CPU      0.00s WALL (      24 calls)
     wfcinit:wfcr :      0.50s CPU      0.54s WALL (      24 calls)
     potinit      :      0.70s CPU      0.74s WALL (       2 calls)
     hinit0       :      0.55s CPU      0.55s WALL (       2 calls)

     Called by electrons:
     c_bands      :    152.67s CPU    168.82s WALL (     180 calls)
     sum_band     :     25.03s CPU     26.62s WALL (     180 calls)
     v_of_rho     :     11.64s CPU     13.20s WALL (     192 calls)
     v_h          :      0.89s CPU      1.06s WALL (     192 calls)
     v_xc         :     10.75s CPU     12.14s WALL (     192 calls)
     mix_rho      :      1.56s CPU      1.79s WALL (     180 calls)

     Called by c_bands:
     init_us_2    :      1.79s CPU      2.27s WALL (    4776 calls)
     cegterg      :    148.34s CPU    164.08s WALL (    2160 calls)

     Called by sum_band:
     sum_band:wei :      0.00s CPU      0.00s WALL (     180 calls)
     sum_band:loo :     23.74s CPU     24.94s WALL (     180 calls)
     sum_band:buf :      0.16s CPU      0.18s WALL (    2160 calls)
     sum_band:ini :      0.80s CPU      0.98s WALL (    2160 calls)

     Called by *egterg:
     cdiaghg      :      2.72s CPU      3.34s WALL (    9774 calls)
     cegterg:over :      9.42s CPU     11.86s WALL (    7878 calls)
     cegterg:upda :      4.28s CPU      5.75s WALL (    7878 calls)
     cegterg:last :      4.76s CPU      5.86s WALL (    4836 calls)
     h_psi        :    123.07s CPU    131.66s WALL (   10062 calls)
     g_psi        :      0.29s CPU      0.30s WALL (    7878 calls)

     Called by h_psi:
     h_psi:calbec :      6.92s CPU      8.56s WALL (   10062 calls)
     vloc_psi     :    111.08s CPU    116.00s WALL (   10062 calls)
     add_vuspsi   :      4.62s CPU      6.46s WALL (   10062 calls)

     General routines
     calbec       :      7.78s CPU      9.66s WALL (   11142 calls)
     fft          :     10.99s CPU     11.88s WALL (    2416 calls)
     ffts         :      0.31s CPU      0.34s WALL (     372 calls)
     fftw         :    125.04s CPU    130.68s WALL (  278406 calls)
     interpolate  :      0.90s CPU      1.05s WALL (     192 calls)

     Parallel routines
     fft_scatt_xy :     12.15s CPU     12.66s WALL (  281194 calls)
     fft_scatt_yz :     21.43s CPU     24.10s WALL (  281194 calls)

     PWSCF        :   3m49.46s CPU   4m10.77s WALL


   This run was terminated on:  19:42: 7  30Apr2026            

=------------------------------------------------------------------------------=
   JOB DONE.
=------------------------------------------------------------------------------=
Note: The following floating-point exceptions are signalling: IEEE_INVALID_FLAG IEEE_DIVIDE_BY_ZERO IEEE_UNDERFLOW_FLAG
