
     Program PWSCF v.6.7MaX starts on 29Apr2026 at 16:10:42 

     This program is part of the open-source Quantum ESPRESSO suite
     for quantum simulation of materials; please cite
         "P. Giannozzi et al., J. Phys.:Condens. Matter 21 395502 (2009);
         "P. Giannozzi et al., J. Phys.:Condens. Matter 29 465901 (2017);
          URL http://www.quantum-espresso.org", 
     in publications or presentations arising from this work. More details at
     http://www.quantum-espresso.org/quote

     Parallel version (MPI & OpenMP), running on       4 processor cores
     Number of MPI processes:                 4
     Threads/MPI process:                     1

     MPI processes distributed on     1 nodes
     R & G space division:  proc/nbgrp/npool/nimage =       4
     Waiting for input...
     Reading input from standard input

     Current dimensions of program PWSCF are:
     Max number of different atomic species (ntypx) = 10
     Max number of k-points (npk) =  40000
     Max angular momentum in pseudopotentials (lmaxx) =  3

     --------------------------------------------
     Parameters for DFT-D3 Dispersion Correction:
     --------------------------------------------
       Reference C6 values for interpolation: 

         atom   Coordination number   C6
         Sb         0.000           985.88
         Sb         0.975           946.94
         Sb         1.952           896.11
         Sb         2.932           834.76

       Values used:

         atom   Coordination number  R0_AB[au]  C6      C8
         Sb         3.111            3.794    835.07  89614.38
         Sb         3.111            3.794    835.07  89614.38

         Molecular C6 ( Ry / a.u.^6 ) =      3340.29


     Subspace diagonalization in iterative solution of the eigenvalue problem:
     a serial algorithm will be used


     Parallelization info
     --------------------
     sticks:   dense  smooth     PW     G-vecs:    dense   smooth      PW
     Min         631     250     73                92526    23382    3583
     Max         632     251     76                92532    23397    3585
     Sum        2527    1003    295               370115    93565   14337



     bravais-lattice index     =            4
     lattice parameter (alat)  =       7.7902  a.u.
     unit-cell volume          =    1489.7684 (a.u.)^3
     number of atoms/cell      =            2
     number of atomic types    =            1
     number of electrons       =        30.00
     number of Kohn-Sham states=           20
     kinetic-energy cutoff     =      60.0000  Ry
     charge density cutoff     =     600.0000  Ry
     scf convergence threshold =      1.0E-06
     mixing beta               =       0.7000
     number of iterations used =            8  plain     mixing
     energy convergence thresh.=      1.0E-04
     force convergence thresh. =      1.0E-03
     press convergence thresh. =      1.0E-03
     Exchange-correlation=  SLA  PW   PBX  PBC
                           (   1   4   3   4   0   0   0)
     nstep                     =           50


     celldm(1)=   7.790207  celldm(2)=   0.000000  celldm(3)=   3.638657
     celldm(4)=   0.000000  celldm(5)=   0.000000  celldm(6)=   0.000000

     crystal axes: (cart. coord. in units of alat)
               a(1) = (   1.000000   0.000000   0.000000 )  
               a(2) = (  -0.500000   0.866025   0.000000 )  
               a(3) = (   0.000000   0.000000   3.638657 )  

     reciprocal axes: (cart. coord. in units 2 pi/alat)
               b(1) = (  1.000000  0.577350 -0.000000 )  
               b(2) = (  0.000000  1.154701  0.000000 )  
               b(3) = (  0.000000 -0.000000  0.274827 )  


     PseudoPot. # 1 for Sb read from file:
     /Users/cdhogan/Research/Codes/espresso/PSEUDO/SSSP_1.3.0_PBE_eff/sb_pbe_v1.4.uspp.F.UPF
     MD5 check sum: 9bc50dfb53373b713f5709b9110fe27f
     Pseudo is Ultrasoft + core correction, Zval = 15.0
     Generated by new atomic code, or converted to UPF format
     Using radial grid of  891 points,  6 beta functions with: 
                l(1) =   0
                l(2) =   0
                l(3) =   1
                l(4) =   1
                l(5) =   2
                l(6) =   2
     Q(r) pseudized with  8 coefficients,  rinner =    1.350   1.350   1.350
                                                       1.350   1.350

     atomic species   valence    mass     pseudopotential
        Sb            15.00    12.01100     Sb( 1.00)

      6 Sym. Ops. (no inversion) found


                                    s                        frac. trans.

      isym =  1     identity                                     

 cryst.   s( 1) = (     1          0          0      )
                  (     0          1          0      )
                  (     0          0          1      )

 cart.    s( 1) = (  1.0000000  0.0000000  0.0000000 )
                  (  0.0000000  1.0000000  0.0000000 )
                  (  0.0000000  0.0000000  1.0000000 )


      isym =  2     120 deg rotation - cryst. axis [0,0,1]       

 cryst.   s( 2) = (     0          1          0      )
                  (    -1         -1          0      )
                  (     0          0          1      )

 cart.    s( 2) = ( -0.5000000 -0.8660254  0.0000000 )
                  (  0.8660254 -0.5000000  0.0000000 )
                  (  0.0000000  0.0000000  1.0000000 )


      isym =  3     120 deg rotation - cryst. axis [0,0,-1]      

 cryst.   s( 3) = (    -1         -1          0      )
                  (     1          0          0      )
                  (     0          0          1      )

 cart.    s( 3) = ( -0.5000000  0.8660254  0.0000000 )
                  ( -0.8660254 -0.5000000  0.0000000 )
                  (  0.0000000  0.0000000  1.0000000 )


      isym =  4     inv. 180 deg rotation - cart. axis [1,0,0]   

 cryst.   s( 4) = (    -1          0          0      )
                  (     1          1          0      )
                  (     0          0          1      )

 cart.    s( 4) = ( -1.0000000  0.0000000  0.0000000 )
                  (  0.0000000  1.0000000  0.0000000 )
                  (  0.0000000  0.0000000  1.0000000 )


      isym =  5     inv. 180 deg rotation - cryst. axis [0,1,0]  

 cryst.   s( 5) = (     1          1          0      )
                  (     0         -1          0      )
                  (     0          0          1      )

 cart.    s( 5) = (  0.5000000  0.8660254  0.0000000 )
                  (  0.8660254 -0.5000000  0.0000000 )
                  (  0.0000000  0.0000000  1.0000000 )


      isym =  6     inv. 180 deg rotation - cryst. axis [1,1,0]  

 cryst.   s( 6) = (     0         -1          0      )
                  (    -1          0          0      )
                  (     0          0          1      )

 cart.    s( 6) = (  0.5000000 -0.8660254  0.0000000 )
                  ( -0.8660254 -0.5000000  0.0000000 )
                  (  0.0000000  0.0000000  1.0000000 )


     point group C_3v (3m)  
     there are  3 classes
     the character table:

       E     2C3   3s_v 
A_1    1.00  1.00  1.00
A_2    1.00  1.00 -1.00
E      2.00 -1.00  0.00

     the symmetry operations in each class and the name of the first element:

     E        1
          identity                                               
     2C3      2    3
          120 deg rotation - cryst. axis [0,0,1]                 
     3s_v     4    5    6
          inv. 180 deg rotation - cart. axis [1,0,0]             

   Cartesian axes

     site n.     atom                  positions (alat units)
         1           Sb  tau(   1) = (   0.0000000   0.0000000   1.8193285  )
         2           Sb  tau(   2) = (  -0.0000000   0.5773503   2.2164880  )

   Crystallographic axes

     site n.     atom                  positions (cryst. coord.)
         1           Sb  tau(   1) = (  0.0000000  0.0000000  0.5000000  )
         2           Sb  tau(   2) = (  0.3333333  0.6666667  0.6091500  )

     number of k points=    12
                       cart. coord. in units 2pi/alat
        k(    1) = (   0.0000000   0.0000000   0.0000000), wk =   0.0246914
        k(    2) = (   0.0000000   0.1283001   0.0000000), wk =   0.1481481
        k(    3) = (   0.0000000   0.2566001   0.0000000), wk =   0.1481481
        k(    4) = (   0.0000000   0.3849002   0.0000000), wk =   0.1481481
        k(    5) = (   0.0000000   0.5132002   0.0000000), wk =   0.1481481
        k(    6) = (   0.1111111   0.1924501   0.0000000), wk =   0.1481481
        k(    7) = (   0.1111111   0.3207501   0.0000000), wk =   0.2962963
        k(    8) = (   0.1111111   0.4490502   0.0000000), wk =   0.2962963
        k(    9) = (   0.1111111   0.5773503   0.0000000), wk =   0.1481481
        k(   10) = (   0.2222222   0.3849002   0.0000000), wk =   0.1481481
        k(   11) = (   0.2222222   0.5132002   0.0000000), wk =   0.2962963
        k(   12) = (   0.3333333   0.5773503   0.0000000), wk =   0.0493827

                       cryst. coord.
        k(    1) = (   0.0000000   0.0000000   0.0000000), wk =   0.0246914
        k(    2) = (   0.0000000   0.1111111   0.0000000), wk =   0.1481481
        k(    3) = (   0.0000000   0.2222222   0.0000000), wk =   0.1481481
        k(    4) = (   0.0000000   0.3333333   0.0000000), wk =   0.1481481
        k(    5) = (   0.0000000   0.4444444   0.0000000), wk =   0.1481481
        k(    6) = (   0.1111111   0.1111111   0.0000000), wk =   0.1481481
        k(    7) = (   0.1111111   0.2222222   0.0000000), wk =   0.2962963
        k(    8) = (   0.1111111   0.3333333   0.0000000), wk =   0.2962963
        k(    9) = (   0.1111111   0.4444444   0.0000000), wk =   0.1481481
        k(   10) = (   0.2222222   0.2222222   0.0000000), wk =   0.1481481
        k(   11) = (   0.2222222   0.3333333   0.0000000), wk =   0.2962963
        k(   12) = (   0.3333333   0.3333333   0.0000000), wk =   0.0493827

     Dense  grid:   370115 G-vectors     FFT dimensions: (  64,  64, 225)

     Smooth grid:    93565 G-vectors     FFT dimensions: (  40,  40, 144)

     Dynamical RAM for                 wfc:       0.89 MB

     Dynamical RAM for     wfc (w. buffer):      11.60 MB

     Dynamical RAM for           str. fact:       1.41 MB

     Dynamical RAM for           local pot:       0.00 MB

     Dynamical RAM for          nlocal pot:       1.61 MB

     Dynamical RAM for                qrad:       3.93 MB

     Dynamical RAM for          rho,v,vnew:       9.58 MB

     Dynamical RAM for               rhoin:       3.19 MB

     Dynamical RAM for            rho*nmix:      22.59 MB

     Dynamical RAM for           G-vectors:       5.47 MB

     Dynamical RAM for          h,s,v(r/c):       0.07 MB

     Dynamical RAM for          <psi|beta>:       0.01 MB

     Dynamical RAM for                 psi:       1.78 MB

     Dynamical RAM for                hpsi:       1.78 MB

     Dynamical RAM for                spsi:       1.78 MB

     Dynamical RAM for      wfcinit/wfcrot:       1.79 MB

     Dynamical RAM for           addusdens:     265.44 MB

     Dynamical RAM for          addusforce:     268.97 MB

     Dynamical RAM for         addusstress:     283.79 MB

     Estimated static dynamical RAM per process >      71.11 MB

     Estimated max dynamical RAM per process >     354.90 MB

     Estimated total dynamical RAM >       1.39 GB

     Initial potential from superposition of free atoms

     starting charge   27.99997, renormalised to   30.00000

     negative rho (up, down):  2.296E-03 0.000E+00
     Starting wfcs are   18 randomized atomic wfcs +    2 random wfcs

     total cpu time spent up to now is        1.7 secs

     Self-consistent Calculation

     iteration #  1     ecut=    60.00 Ry     beta= 0.70
     Davidson diagonalization with overlap
     ethr =  1.00E-02,  avg # of iterations =  7.0

     negative rho (up, down):  1.245E-05 0.000E+00

     total cpu time spent up to now is        3.4 secs

     total energy              =    -369.04120904 Ry
     estimated scf accuracy    <       2.28909335 Ry

     iteration #  2     ecut=    60.00 Ry     beta= 0.70
     Davidson diagonalization with overlap
     ethr =  7.63E-03,  avg # of iterations =  2.5

     negative rho (up, down):  1.707E-07 0.000E+00

     total cpu time spent up to now is        4.7 secs

     total energy              =    -369.84262567 Ry
     estimated scf accuracy    <       0.42242212 Ry

     iteration #  3     ecut=    60.00 Ry     beta= 0.70
     Davidson diagonalization with overlap
     ethr =  1.41E-03,  avg # of iterations =  2.2

     total cpu time spent up to now is        6.0 secs

     total energy              =    -369.92552727 Ry
     estimated scf accuracy    <       0.00742116 Ry

     iteration #  4     ecut=    60.00 Ry     beta= 0.70
     Davidson diagonalization with overlap
     ethr =  2.47E-05,  avg # of iterations =  6.6

     negative rho (up, down):  2.052E-07 0.000E+00

     total cpu time spent up to now is        7.4 secs

     total energy              =    -369.92653548 Ry
     estimated scf accuracy    <       0.00052307 Ry

     iteration #  5     ecut=    60.00 Ry     beta= 0.70
     Davidson diagonalization with overlap
     c_bands:  1 eigenvalues not converged
     ethr =  1.74E-06,  avg # of iterations =  7.8

     negative rho (up, down):  1.788E-06 0.000E+00

     total cpu time spent up to now is        8.9 secs

     total energy              =    -369.92647608 Ry
     estimated scf accuracy    <       0.00112691 Ry

     iteration #  6     ecut=    60.00 Ry     beta= 0.70
     Davidson diagonalization with overlap
     ethr =  1.74E-06,  avg # of iterations =  3.4

     negative rho (up, down):  2.113E-06 0.000E+00

     total cpu time spent up to now is       10.0 secs

     total energy              =    -369.92662312 Ry
     estimated scf accuracy    <       0.00003933 Ry

     iteration #  7     ecut=    60.00 Ry     beta= 0.70
     Davidson diagonalization with overlap
     ethr =  1.31E-07,  avg # of iterations =  2.0

     negative rho (up, down):  3.375E-06 0.000E+00

     total cpu time spent up to now is       11.2 secs

     End of self-consistent calculation

          k = 0.0000 0.0000 0.0000 ( 11745 PWs)   bands (ev):

   -29.4763 -29.4763 -29.4060 -29.4060 -29.3615 -29.3006 -29.3006 -29.2644
   -29.2210 -29.2210 -12.1523  -7.2098  -1.4908  -0.9081  -0.9081   0.6692
     1.8836   1.8836   3.4693   3.5224

     occupation numbers 
     1.0000   1.0000   1.0000   1.0000   1.0000   1.0000   1.0000   1.0000
     1.0000   1.0000   1.0000   1.0000   1.0000   1.0000   1.0000   0.0000
     0.0000   0.0000   0.0000   0.0000

          k = 0.0000 0.1283 0.0000 ( 11737 PWs)   bands (ev):

   -29.4755 -29.4701 -29.4052 -29.4022 -29.3599 -29.3033 -29.3008 -29.2661
   -29.2281 -29.2214 -12.0218  -7.2103  -1.9839  -1.4399  -1.1885   1.1694
     1.9323   2.1487   3.6142   3.7018

     occupation numbers 
     1.0000   1.0000   1.0000   1.0000   1.0000   1.0000   1.0000   1.0000
     1.0000   1.0000   1.0000   1.0000   1.0000   1.0000   1.0000   0.0000
     0.0000   0.0000   0.0000   0.0000

          k = 0.0000 0.2566 0.0000 ( 11699 PWs)   bands (ev):

   -29.4734 -29.4529 -29.4029 -29.3913 -29.3546 -29.3112 -29.3021 -29.2715
   -29.2469 -29.2224 -11.6386  -7.3203  -3.2678  -1.7195  -1.4054   0.5736
     2.5300   2.5836   3.9473   4.1120

     occupation numbers 
     1.0000   1.0000   1.0000   1.0000   1.0000   1.0000   1.0000   1.0000
     1.0000   1.0000   1.0000   1.0000   1.0000   1.0000   1.0000   0.0000
     0.0000   0.0000   0.0000   0.0000

          k = 0.0000 0.3849 0.0000 ( 11690 PWs)   bands (ev):

   -29.4710 -29.4303 -29.3974 -29.3757 -29.3461 -29.3236 -29.3061 -29.2861
   -29.2657 -29.2236 -11.0397  -7.7978  -3.8876  -2.1709  -1.7314   0.3949
     2.1820   2.6607   4.4775   4.5956

     occupation numbers 
     1.0000   1.0000   1.0000   1.0000   1.0000   1.0000   1.0000   1.0000
     1.0000   1.0000   1.0000   1.0000   1.0000   1.0000   1.0000   0.0000
     0.0000   0.0000   0.0000   0.0000

          k = 0.0000 0.5132 0.0000 ( 11668 PWs)   bands (ev):

   -29.4693 -29.4173 -29.3810 -29.3576 -29.3413 -29.3396 -29.3132 -29.3077
   -29.2716 -29.2244 -10.3858  -8.5136  -3.8723  -2.4169  -2.2560   0.6657
     1.6571   2.6506   4.2712   5.5231

     occupation numbers 
     1.0000   1.0000   1.0000   1.0000   1.0000   1.0000   1.0000   1.0000
     1.0000   1.0000   1.0000   1.0000   1.0000   1.0000   1.0000   0.0000
     0.0000   0.0000   0.0000   0.0000

          k = 0.1111 0.1925 0.0000 ( 11703 PWs)   bands (ev):

   -29.4741 -29.4583 -29.4031 -29.3956 -29.3563 -29.3091 -29.3010 -29.2696
   -29.2410 -29.2222 -11.7646  -7.2630  -2.8787  -1.8469  -1.3714   1.3378
     1.7421   2.7690   3.8781   3.9851

     occupation numbers 
     1.0000   1.0000   1.0000   1.0000   1.0000   1.0000   1.0000   1.0000
     1.0000   1.0000   1.0000   1.0000   1.0000   1.0000   1.0000   0.0000
     0.0000   0.0000   0.0000   0.0000

          k = 0.1111 0.3208 0.0000 ( 11696 PWs)   bands (ev):

   -29.4720 -29.4371 -29.3992 -29.3840 -29.3484 -29.3203 -29.3022 -29.2788
   -29.2611 -29.2236 -11.2689  -7.5593  -3.6214  -2.5710  -1.4559   0.9620
     2.1356   2.6861   4.3117   4.4626

     occupation numbers 
     1.0000   1.0000   1.0000   1.0000   1.0000   1.0000   1.0000   1.0000
     1.0000   1.0000   1.0000   1.0000   1.0000   1.0000   1.0000   0.0000
     0.0000   0.0000   0.0000   0.0000

          k = 0.1111 0.4491 0.0000 ( 11695 PWs)   bands (ev):

   -29.4701 -29.4164 -29.3892 -29.3687 -29.3397 -29.3350 -29.3067 -29.3006
   -29.2722 -29.2249 -10.6042  -8.2186  -3.8672  -2.8961  -1.9200   1.0059
     1.9538   2.4144   4.6084   5.1647

     occupation numbers 
     1.0000   1.0000   1.0000   1.0000   1.0000   1.0000   1.0000   1.0000
     1.0000   1.0000   1.0000   1.0000   1.0000   1.0000   1.0000   0.0000
     0.0000   0.0000   0.0000   0.0000

          k = 0.1111 0.5774 0.0000 ( 11668 PWs)   bands (ev):

   -29.4693 -29.4108 -29.3732 -29.3557 -29.3514 -29.3372 -29.3161 -29.3086
   -29.2749 -29.2255 -10.1429  -8.7222  -3.8800  -2.8175  -2.3506   1.3966
     1.4443   2.4291   4.3752   6.2160

     occupation numbers 
     1.0000   1.0000   1.0000   1.0000   1.0000   1.0000   1.0000   1.0000
     1.0000   1.0000   1.0000   1.0000   1.0000   1.0000   1.0000   0.0000
     0.0000   0.0000   0.0000   0.0000

          k = 0.2222 0.3849 0.0000 ( 11680 PWs)   bands (ev):

   -29.4705 -29.4138 -29.3928 -29.3749 -29.3380 -29.3356 -29.3012 -29.2977
   -29.2737 -29.2256 -10.6879  -8.0744  -3.5673  -3.5439  -1.7339   1.4072
     1.5942   2.9328   4.8713   5.0980

     occupation numbers 
     1.0000   1.0000   1.0000   1.0000   1.0000   1.0000   1.0000   1.0000
     1.0000   1.0000   1.0000   1.0000   1.0000   1.0000   1.0000   0.0000
     0.0000   0.0000   0.0000   0.0000

          k = 0.2222 0.5132 0.0000 ( 11685 PWs)   bands (ev):

   -29.4695 -29.3975 -29.3792 -29.3613 -29.3544 -29.3305 -29.3212 -29.3005
   -29.2810 -29.2271 -10.0159  -8.7508  -4.1127  -3.1303  -2.2495   0.9503
     2.1649   2.7314   5.1219   5.9797

     occupation numbers 
     1.0000   1.0000   1.0000   1.0000   1.0000   1.0000   1.0000   1.0000
     1.0000   1.0000   1.0000   1.0000   1.0000   1.0000   1.0000   0.0000
     0.0000   0.0000   0.0000   0.0000

          k = 0.3333 0.5774 0.0000 ( 11694 PWs)   bands (ev):

   -29.4693 -29.3768 -29.3761 -29.3755 -29.3437 -29.3432 -29.3259 -29.2915
   -29.2911 -29.2281  -9.3656  -9.3654  -4.3926  -2.6889  -2.6888   0.6237
     2.6879   2.6880   5.7300   6.4048

     occupation numbers 
     1.0000   1.0000   1.0000   1.0000   1.0000   1.0000   1.0000   1.0000
     1.0000   1.0000   1.0000   1.0000   1.0000   1.0000   1.0000   0.0000
     0.0000   0.0000   0.0000   0.0000

     highest occupied, lowest unoccupied level (ev):    -0.9081    0.3949

!    total energy              =    -369.92662812 Ry
     estimated scf accuracy    <       0.00000051 Ry

     The total energy is the sum of the following terms:
     one-electron contribution =    -790.52465912 Ry
     hartree contribution      =     400.66470871 Ry
     xc contribution           =     -88.01230347 Ry
     ewald contribution        =     107.97955464 Ry
     DFT-D3 Dispersion         =      -0.03392888 Ry

     convergence has been achieved in   7 iterations

     negative rho (up, down):  3.375E-06 0.000E+00

     Forces acting on atoms (cartesian axes, Ry/au):

     atom    1 type  1   force =     0.00000000    0.00000000    0.00109465
     atom    2 type  1   force =     0.00000000    0.00000000   -0.00109465
     The non-local contrib.  to forces
     atom    1 type  1   force =     0.00000000    0.00000000    0.53147886
     atom    2 type  1   force =     0.00000000    0.00000000   -0.53192655
     The ionic contribution  to forces
     atom    1 type  1   force =    -0.00000001    0.00000001  -34.59749096
     atom    2 type  1   force =     0.00000001   -0.00000001   34.59749096
     The local contribution  to forces
     atom    1 type  1   force =     0.00000000   -0.00000000   34.06611853
     atom    2 type  1   force =     0.00000041   -0.00000023  -34.06737934
     The core correction contribution to forces
     atom    1 type  1   force =    -0.00000000    0.00000000    0.00042477
     atom    2 type  1   force =     0.00000004   -0.00000002   -0.00043635
     The Hubbard contrib.    to forces
     atom    1 type  1   force =     0.00000000    0.00000000    0.00000000
     atom    2 type  1   force =     0.00000000    0.00000000    0.00000000
     The SCF correction term to forces
     atom    1 type  1   force =     0.00000000   -0.00000000   -0.00000000
     atom    2 type  1   force =    -0.00000000    0.00000000    0.00230957

     DFT-D3 dispersion contribution to forces:
     atom    1 type  1   force =     0.00000000   -0.00000000    0.00117687
     atom    2 type  1   force =    -0.00000000    0.00000000   -0.00117687

     Total force =     0.001095     Total SCF correction =     0.002310

     DFT-D3 dispersion Force =     0.001664
     SCF correction compared to forces is large: reduce conv_thr to get better values


     Computing stress (Cartesian axis) and pressure


     negative rho (up, down):  3.375E-06 0.000E+00
          total   stress  (Ry/bohr**3)                   (kbar)     P=       -3.61
  -0.00003143  -0.00000000   0.00000000           -4.62       -0.00        0.00
  -0.00000000  -0.00003143   0.00000000           -0.00       -4.62        0.00
   0.00000000  -0.00000000  -0.00001086            0.00       -0.00       -1.60

     kinetic stress (kbar)   4680.57      0.00      0.00
                                0.00   4680.57      0.00
                                0.00     -0.00   4706.88

     local   stress (kbar) -59871.80      0.00     -0.00
                                0.00 -59871.80      0.00
                               -0.00      0.00  60327.79

     nonloc. stress (kbar)     25.49     -0.00      0.00
                                0.00     25.49     -0.00
                                0.00     -0.00     43.73

     hartree stress (kbar)  32577.00      0.00     -0.00
                                0.00  32577.00     -0.00
                               -0.00     -0.00 -25590.92

     exc-cor stress (kbar)   2879.48     -0.00      0.00
                               -0.00   2879.48     -0.00
                                0.00     -0.00   2878.23

     corecor stress (kbar)  -4537.39     -0.00      0.00
                               -0.00  -4537.39     -0.00
                                0.00     -0.00  -4537.85

     ewald   stress (kbar)  24245.67     -0.00      0.00
                               -0.00  24245.67     -0.00
                                0.00     -0.00 -37829.05

     hubbard stress (kbar)      0.00      0.00      0.00
                                0.00      0.00      0.00
                                0.00      0.00      0.00

     DFT-D   stress (kbar)     -3.64     -0.00     -0.00
                               -0.00     -3.64      0.00
                               -0.00      0.00     -0.41

     XDM     stress (kbar)      0.00      0.00      0.00
                                0.00      0.00      0.00
                                0.00      0.00      0.00

     dft-nl  stress (kbar)      0.00      0.00      0.00
                                0.00      0.00      0.00
                                0.00      0.00      0.00

     TS-vdW  stress (kbar)      0.00      0.00      0.00
                                0.00      0.00      0.00
                                0.00      0.00      0.00



     BFGS Geometry Optimization
     Energy error            =      0.0E+00
     Gradient error          =      1.1E-03
     Cell gradient error     =      3.1E-05


     number of scf cycles    =   1
     number of bfgs steps    =   0

     enthalpy new            =    -369.9266281215 Ry

     new trust radius        =       0.0060651863 bohr
     new conv_thr            =       0.0000010000 Ry

     new unit-cell volume =   1487.42828 a.u.^3 (   220.41413 Ang^3 )
     density =      0.18098 g/cm^3

CELL_PARAMETERS (alat=  7.79020698)
   0.999214304  -0.000000000   0.000000000
  -0.499607152   0.865344971   0.000000000
   0.000000000   0.000000000   3.638657093

ATOMIC_POSITIONS (crystal)
Sb            0.0000000000        0.0000000000        0.5000000000    0   0   0
Sb            0.3333333330        0.6666666670        0.6091113824



     Writing output data file ./tmp/Sb.save/
     NEW-OLD atomic charge density approx. for the potential

     negative rho (up, down):  2.357E-05 0.000E+00
     extrapolated charge   29.95595, renormalised to   30.00000

     total cpu time spent up to now is       16.4 secs

     Self-consistent Calculation

     iteration #  1     ecut=    60.00 Ry     beta= 0.70
     Davidson diagonalization with overlap
     ethr =  1.00E-06,  avg # of iterations =  7.6

     negative rho (up, down):  1.037E-05 0.000E+00

     total cpu time spent up to now is       18.0 secs

     total energy              =    -369.92527637 Ry
     estimated scf accuracy    <       0.00095644 Ry

     iteration #  2     ecut=    60.00 Ry     beta= 0.70
     Davidson diagonalization with overlap
     ethr =  3.19E-06,  avg # of iterations =  7.6

     negative rho (up, down):  5.686E-06 0.000E+00

     total cpu time spent up to now is       19.7 secs

     total energy              =    -369.92663336 Ry
     estimated scf accuracy    <       0.00202500 Ry

     iteration #  3     ecut=    60.00 Ry     beta= 0.70
     Davidson diagonalization with overlap
     ethr =  3.19E-06,  avg # of iterations =  3.6

     negative rho (up, down):  4.640E-06 0.000E+00

     total cpu time spent up to now is       21.0 secs

     total energy              =    -369.92673435 Ry
     estimated scf accuracy    <       0.00030002 Ry

     iteration #  4     ecut=    60.00 Ry     beta= 0.70
     Davidson diagonalization with overlap
     ethr =  1.00E-06,  avg # of iterations =  2.4

     negative rho (up, down):  4.278E-06 0.000E+00

     total cpu time spent up to now is       22.2 secs

     total energy              =    -369.92671234 Ry
     estimated scf accuracy    <       0.00015520 Ry

     iteration #  5     ecut=    60.00 Ry     beta= 0.70
     Davidson diagonalization with overlap
     ethr =  5.17E-07,  avg # of iterations =  1.0

     negative rho (up, down):  4.111E-06 0.000E+00

     total cpu time spent up to now is       23.3 secs

     total energy              =    -369.92670435 Ry
     estimated scf accuracy    <       0.00007435 Ry

     iteration #  6     ecut=    60.00 Ry     beta= 0.70
     Davidson diagonalization with overlap
     ethr =  2.48E-07,  avg # of iterations =  1.0

     negative rho (up, down):  3.996E-06 0.000E+00

     total cpu time spent up to now is       24.4 secs

     total energy              =    -369.92669448 Ry
     estimated scf accuracy    <       0.00004642 Ry

     iteration #  7     ecut=    60.00 Ry     beta= 0.70
     Davidson diagonalization with overlap
     ethr =  1.55E-07,  avg # of iterations =  1.1

     negative rho (up, down):  3.794E-06 0.000E+00

     total cpu time spent up to now is       25.4 secs

     total energy              =    -369.92668182 Ry
     estimated scf accuracy    <       0.00002191 Ry

     iteration #  8     ecut=    60.00 Ry     beta= 0.70
     Davidson diagonalization with overlap
     ethr =  7.30E-08,  avg # of iterations =  2.2

     negative rho (up, down):  3.787E-06 0.000E+00

     total cpu time spent up to now is       26.6 secs

     End of self-consistent calculation

          k = 0.0000 0.0000 0.0000 ( 11745 PWs)   bands (ev):

   -29.4757 -29.4757 -29.4050 -29.4050 -29.3607 -29.2990 -29.2990 -29.2629
   -29.2191 -29.2191 -12.1607  -7.2064  -1.4893  -0.9017  -0.9017   0.6823
     1.8934   1.8934   3.4775   3.5286

     occupation numbers 
     1.0000   1.0000   1.0000   1.0000   1.0000   1.0000   1.0000   1.0000
     1.0000   1.0000   1.0000   1.0000   1.0000   1.0000   1.0000   0.0000
     0.0000   0.0000   0.0000   0.0000

          k = 0.0000 0.1284 0.0000 ( 11737 PWs)   bands (ev):

   -29.4750 -29.4696 -29.4041 -29.4011 -29.3591 -29.3017 -29.2992 -29.2646
   -29.2262 -29.2195 -12.0298  -7.2062  -1.9804  -1.4379  -1.1830   1.1797
     1.9451   2.1595   3.6224   3.7088

     occupation numbers 
     1.0000   1.0000   1.0000   1.0000   1.0000   1.0000   1.0000   1.0000
     1.0000   1.0000   1.0000   1.0000   1.0000   1.0000   1.0000   0.0000
     0.0000   0.0000   0.0000   0.0000

          k = 0.0000 0.2568 0.0000 ( 11699 PWs)   bands (ev):

   -29.4729 -29.4523 -29.4018 -29.3902 -29.3537 -29.3096 -29.3005 -29.2700
   -29.2452 -29.2205 -11.6456  -7.3150  -3.2689  -1.7157  -1.4021   0.5801
     2.5418   2.5958   3.9548   4.1207

     occupation numbers 
     1.0000   1.0000   1.0000   1.0000   1.0000   1.0000   1.0000   1.0000
     1.0000   1.0000   1.0000   1.0000   1.0000   1.0000   1.0000   0.0000
     0.0000   0.0000   0.0000   0.0000

          k = 0.0000 0.3852 0.0000 ( 11690 PWs)   bands (ev):

   -29.4704 -29.4294 -29.3964 -29.3744 -29.3450 -29.3221 -29.3046 -29.2845
   -29.2642 -29.2217 -11.0449  -7.7932  -3.8904  -2.1684  -1.7277   0.3998
     2.1893   2.6720   4.4864   4.6045

     occupation numbers 
     1.0000   1.0000   1.0000   1.0000   1.0000   1.0000   1.0000   1.0000
     1.0000   1.0000   1.0000   1.0000   1.0000   1.0000   1.0000   0.0000
     0.0000   0.0000   0.0000   0.0000

          k = 0.0000 0.5136 0.0000 ( 11668 PWs)   bands (ev):

   -29.4687 -29.4163 -29.3801 -29.3563 -29.3399 -29.3381 -29.3119 -29.3064
   -29.2701 -29.2225 -10.3888  -8.5120  -3.8735  -2.4150  -2.2542   0.6713
     1.6627   2.6613   4.2769   5.5332

     occupation numbers 
     1.0000   1.0000   1.0000   1.0000   1.0000   1.0000   1.0000   1.0000
     1.0000   1.0000   1.0000   1.0000   1.0000   1.0000   1.0000   0.0000
     0.0000   0.0000   0.0000   0.0000

          k = 0.1112 0.1926 0.0000 ( 11703 PWs)   bands (ev):

   -29.4736 -29.4576 -29.4020 -29.3944 -29.3554 -29.3075 -29.2994 -29.2681
   -29.2392 -29.2203 -11.7719  -7.2580  -2.8784  -1.8437  -1.3686   1.3464
     1.7536   2.7822   3.8868   3.9928

     occupation numbers 
     1.0000   1.0000   1.0000   1.0000   1.0000   1.0000   1.0000   1.0000
     1.0000   1.0000   1.0000   1.0000   1.0000   1.0000   1.0000   0.0000
     0.0000   0.0000   0.0000   0.0000

          k = 0.1112 0.3210 0.0000 ( 11696 PWs)   bands (ev):

   -29.4715 -29.4363 -29.3981 -29.3829 -29.3473 -29.3188 -29.3006 -29.2773
   -29.2595 -29.2217 -11.2748  -7.5539  -3.6238  -2.5698  -1.4521   0.9688
     2.1455   2.6971   4.3201   4.4720

     occupation numbers 
     1.0000   1.0000   1.0000   1.0000   1.0000   1.0000   1.0000   1.0000
     1.0000   1.0000   1.0000   1.0000   1.0000   1.0000   1.0000   0.0000
     0.0000   0.0000   0.0000   0.0000

          k = 0.1112 0.4494 0.0000 ( 11695 PWs)   bands (ev):

   -29.4695 -29.4154 -29.3883 -29.3675 -29.3384 -29.3336 -29.3053 -29.2992
   -29.2708 -29.2230 -10.6081  -8.2154  -3.8692  -2.8960  -1.9168   1.0119
     1.9616   2.4237   4.6160   5.1739

     occupation numbers 
     1.0000   1.0000   1.0000   1.0000   1.0000   1.0000   1.0000   1.0000
     1.0000   1.0000   1.0000   1.0000   1.0000   1.0000   1.0000   0.0000
     0.0000   0.0000   0.0000   0.0000

          k = 0.1112 0.5778 0.0000 ( 11668 PWs)   bands (ev):

   -29.4686 -29.4097 -29.3722 -29.3543 -29.3501 -29.3357 -29.3147 -29.3073
   -29.2734 -29.2236 -10.1451  -8.7212  -3.8812  -2.8172  -2.3490   1.4017
     1.4526   2.4382   4.3807   6.2282

     occupation numbers 
     1.0000   1.0000   1.0000   1.0000   1.0000   1.0000   1.0000   1.0000
     1.0000   1.0000   1.0000   1.0000   1.0000   1.0000   1.0000   0.0000
     0.0000   0.0000   0.0000   0.0000

          k = 0.2224 0.3852 0.0000 ( 11680 PWs)   bands (ev):

   -29.4699 -29.4128 -29.3918 -29.3738 -29.3367 -29.3342 -29.2997 -29.2963
   -29.2723 -29.2237 -10.6921  -8.0703  -3.5691  -3.5458  -1.7301   1.4131
     1.6012   2.9463   4.8803   5.1071

     occupation numbers 
     1.0000   1.0000   1.0000   1.0000   1.0000   1.0000   1.0000   1.0000
     1.0000   1.0000   1.0000   1.0000   1.0000   1.0000   1.0000   0.0000
     0.0000   0.0000   0.0000   0.0000

          k = 0.2224 0.5136 0.0000 ( 11685 PWs)   bands (ev):

   -29.4689 -29.3963 -29.3780 -29.3602 -29.3530 -29.3290 -29.3199 -29.2991
   -29.2796 -29.2252 -10.0179  -8.7490  -4.1158  -3.1305  -2.2470   0.9542
     2.1731   2.7427   5.1298   5.9907

     occupation numbers 
     1.0000   1.0000   1.0000   1.0000   1.0000   1.0000   1.0000   1.0000
     1.0000   1.0000   1.0000   1.0000   1.0000   1.0000   1.0000   0.0000
     0.0000   0.0000   0.0000   0.0000

          k = 0.3336 0.5778 0.0000 ( 11694 PWs)   bands (ev):

   -29.4686 -29.3752 -29.3752 -29.3745 -29.3423 -29.3423 -29.3243 -29.2900
   -29.2900 -29.2262  -9.3655  -9.3655  -4.3971  -2.6874  -2.6874   0.6263
     2.6978   2.6978   5.7391   6.4189

     occupation numbers 
     1.0000   1.0000   1.0000   1.0000   1.0000   1.0000   1.0000   1.0000
     1.0000   1.0000   1.0000   1.0000   1.0000   1.0000   1.0000   0.0000
     0.0000   0.0000   0.0000   0.0000

     highest occupied, lowest unoccupied level (ev):    -0.9017    0.3998

!    total energy              =    -369.92668679 Ry
     estimated scf accuracy    <       0.00000003 Ry

     The total energy is the sum of the following terms:
     one-electron contribution =    -791.39036978 Ry
     hartree contribution      =     401.10873089 Ry
     xc contribution           =     -88.01492572 Ry
     ewald contribution        =     108.40386597 Ry
     DFT-D3 Dispersion         =      -0.03398814 Ry

     convergence has been achieved in   8 iterations

     negative rho (up, down):  3.787E-06 0.000E+00

     Forces acting on atoms (cartesian axes, Ry/au):

     atom    1 type  1   force =     0.00000000    0.00000000    0.00082508
     atom    2 type  1   force =     0.00000000    0.00000000   -0.00082508
     The non-local contrib.  to forces
     atom    1 type  1   force =     0.00000000    0.00000000    0.53184133
     atom    2 type  1   force =     0.00000000    0.00000000   -0.53188325
     The ionic contribution  to forces
     atom    1 type  1   force =    -0.00000001    0.00000001  -34.66418257
     atom    2 type  1   force =     0.00000001   -0.00000001   34.66418257
     The local contribution  to forces
     atom    1 type  1   force =     0.00000000   -0.00000000   34.13148996
     atom    2 type  1   force =     0.00000040   -0.00000023  -34.13138992
     The core correction contribution to forces
     atom    1 type  1   force =    -0.00000000    0.00000000    0.00027562
     atom    2 type  1   force =     0.00000004   -0.00000002   -0.00027252
     The Hubbard contrib.    to forces
     atom    1 type  1   force =     0.00000000    0.00000000    0.00000000
     atom    2 type  1   force =     0.00000000    0.00000000    0.00000000
     The SCF correction term to forces
     atom    1 type  1   force =    -0.00000000    0.00000000    0.00000000
     atom    2 type  1   force =    -0.00000000    0.00000000   -0.00029756

     DFT-D3 dispersion contribution to forces:
     atom    1 type  1   force =     0.00000000   -0.00000000    0.00118116
     atom    2 type  1   force =    -0.00000000    0.00000000   -0.00118116

     Total force =     0.000825     Total SCF correction =     0.000298

     DFT-D3 dispersion Force =     0.001670
     SCF correction compared to forces is large: reduce conv_thr to get better values


     Computing stress (Cartesian axis) and pressure


     negative rho (up, down):  3.787E-06 0.000E+00
          total   stress  (Ry/bohr**3)                   (kbar)     P=       -1.95
  -0.00002004  -0.00000000   0.00000000           -2.95       -0.00        0.00
  -0.00000000  -0.00002004   0.00000000           -0.00       -2.95        0.00
  -0.00000000  -0.00000000   0.00000027           -0.00       -0.00        0.04

     kinetic stress (kbar)   4688.17     -0.00      0.00
                               -0.00   4688.17      0.00
                                0.00      0.00   4714.52

     local   stress (kbar) -60066.84      0.00     -0.00
                                0.00 -60066.84      0.00
                               -0.00      0.00  60538.68

     nonloc. stress (kbar)     26.99      0.00      0.00
                                0.00     26.99      0.00
                                0.00      0.00     45.25

     hartree stress (kbar)  32677.74      0.00      0.00
                                0.00  32677.74     -0.00
                                0.00     -0.00 -25686.24

     exc-cor stress (kbar)   2883.95     -0.00      0.00
                               -0.00   2883.95     -0.00
                                0.00     -0.00   2882.70

     corecor stress (kbar)  -4544.54     -0.00      0.00
                               -0.00  -4544.54     -0.00
                                0.00     -0.00  -4545.00

     ewald   stress (kbar)  24335.24     -0.00      0.00
                               -0.00  24335.24     -0.00
                                0.00     -0.00 -37949.45

     hubbard stress (kbar)      0.00      0.00      0.00
                                0.00      0.00      0.00
                                0.00      0.00      0.00

     DFT-D   stress (kbar)     -3.65     -0.00     -0.00
                               -0.00     -3.65      0.00
                               -0.00      0.00     -0.42

     XDM     stress (kbar)      0.00      0.00      0.00
                                0.00      0.00      0.00
                                0.00      0.00      0.00

     dft-nl  stress (kbar)      0.00      0.00      0.00
                                0.00      0.00      0.00
                                0.00      0.00      0.00

     TS-vdW  stress (kbar)      0.00      0.00      0.00
                                0.00      0.00      0.00
                                0.00      0.00      0.00


     Energy error            =      5.9E-05
     Gradient error          =      8.3E-04
     Cell gradient error     =      2.0E-05


     number of scf cycles    =   2
     number of bfgs steps    =   1

     enthalpy old            =    -369.9266281215 Ry
     enthalpy new            =    -369.9266867935 Ry

     CASE: enthalpy_new < enthalpy_old

     new trust radius        =       0.0066717050 bohr
     new conv_thr            =       0.0000000100 Ry

     new unit-cell volume =   1484.85631 a.u.^3 (   220.03300 Ang^3 )
     density =      0.18129 g/cm^3

CELL_PARAMETERS (alat=  7.79020698)
   0.998350037  -0.000000000   0.000000000
  -0.499175019   0.864596494   0.000000000
   0.000000000   0.000000000   3.638657093

ATOMIC_POSITIONS (crystal)
Sb            0.0000000000        0.0000000000        0.5000000000    0   0   0
Sb            0.3333333330        0.6666666670        0.6090611263



     Writing output data file ./tmp/Sb.save/
     NEW-OLD atomic charge density approx. for the potential

     negative rho (up, down):  3.097E-05 0.000E+00
     extrapolated charge   29.95150, renormalised to   30.00000

     total cpu time spent up to now is       32.0 secs

     Self-consistent Calculation

     iteration #  1     ecut=    60.00 Ry     beta= 0.70
     Davidson diagonalization with overlap
     ethr =  1.00E-06,  avg # of iterations =  7.6

     negative rho (up, down):  1.283E-05 0.000E+00

     total cpu time spent up to now is       33.9 secs

     total energy              =    -369.92505672 Ry
     estimated scf accuracy    <       0.00112968 Ry

     iteration #  2     ecut=    60.00 Ry     beta= 0.70
     Davidson diagonalization with overlap
     ethr =  3.77E-06,  avg # of iterations =  7.7

     negative rho (up, down):  6.651E-06 0.000E+00

     total cpu time spent up to now is       35.6 secs

     total energy              =    -369.92668239 Ry
     estimated scf accuracy    <       0.00245770 Ry

     iteration #  3     ecut=    60.00 Ry     beta= 0.70
     Davidson diagonalization with overlap
     ethr =  3.77E-06,  avg # of iterations =  3.7

     negative rho (up, down):  5.320E-06 0.000E+00

     total cpu time spent up to now is       36.9 secs

     total energy              =    -369.92682900 Ry
     estimated scf accuracy    <       0.00038230 Ry

     iteration #  4     ecut=    60.00 Ry     beta= 0.70
     Davidson diagonalization with overlap
     ethr =  1.27E-06,  avg # of iterations =  2.2

     negative rho (up, down):  4.818E-06 0.000E+00

     total cpu time spent up to now is       38.1 secs

     total energy              =    -369.92677917 Ry
     estimated scf accuracy    <       0.00024333 Ry

     iteration #  5     ecut=    60.00 Ry     beta= 0.70
     Davidson diagonalization with overlap
     ethr =  8.11E-07,  avg # of iterations =  1.2

     negative rho (up, down):  4.687E-06 0.000E+00

     total cpu time spent up to now is       39.2 secs

     total energy              =    -369.92678013 Ry
     estimated scf accuracy    <       0.00010357 Ry

     iteration #  6     ecut=    60.00 Ry     beta= 0.70
     Davidson diagonalization with overlap
     ethr =  3.45E-07,  avg # of iterations =  1.0

     negative rho (up, down):  4.596E-06 0.000E+00

     total cpu time spent up to now is       40.3 secs

     total energy              =    -369.92677698 Ry
     estimated scf accuracy    <       0.00008875 Ry

     iteration #  7     ecut=    60.00 Ry     beta= 0.70
     Davidson diagonalization with overlap
     ethr =  2.96E-07,  avg # of iterations =  1.0

     negative rho (up, down):  3.887E-06 0.000E+00

     total cpu time spent up to now is       41.4 secs

     total energy              =    -369.92673505 Ry
     estimated scf accuracy    <       0.00008022 Ry

     iteration #  8     ecut=    60.00 Ry     beta= 0.70
     Davidson diagonalization with overlap
     ethr =  2.67E-07,  avg # of iterations =  2.3

     negative rho (up, down):  3.981E-06 0.000E+00

     total cpu time spent up to now is       42.6 secs

     total energy              =    -369.92674582 Ry
     estimated scf accuracy    <       0.00000348 Ry

     iteration #  9     ecut=    60.00 Ry     beta= 0.70
     Davidson diagonalization with overlap
     ethr =  1.16E-08,  avg # of iterations =  1.9

     negative rho (up, down):  4.046E-06 0.000E+00

     total cpu time spent up to now is       43.8 secs

     total energy              =    -369.92674541 Ry
     estimated scf accuracy    <       0.00000159 Ry

     iteration # 10     ecut=    60.00 Ry     beta= 0.70
     Davidson diagonalization with overlap
     ethr =  5.29E-09,  avg # of iterations =  2.0

     negative rho (up, down):  4.171E-06 0.000E+00

     total cpu time spent up to now is       45.3 secs

     total energy              =    -369.92674543 Ry
     estimated scf accuracy    <       0.00000033 Ry

     iteration # 11     ecut=    60.00 Ry     beta= 0.70
     Davidson diagonalization with overlap
     ethr =  1.10E-09,  avg # of iterations =  2.0

     negative rho (up, down):  4.145E-06 0.000E+00

     total cpu time spent up to now is       46.6 secs

     total energy              =    -369.92674548 Ry
     estimated scf accuracy    <       0.00000003 Ry

     iteration # 12     ecut=    60.00 Ry     beta= 0.70
     Davidson diagonalization with overlap
     ethr =  1.16E-10,  avg # of iterations =  1.0

     negative rho (up, down):  4.149E-06 0.000E+00

     total cpu time spent up to now is       47.7 secs

     total energy              =    -369.92674547 Ry
     estimated scf accuracy    <       0.00000004 Ry

     iteration # 13     ecut=    60.00 Ry     beta= 0.70
     Davidson diagonalization with overlap
     ethr =  1.16E-10,  avg # of iterations =  1.0

     negative rho (up, down):  4.178E-06 0.000E+00

     total cpu time spent up to now is       48.8 secs

     total energy              =    -369.92674546 Ry
     estimated scf accuracy    <       0.00000002 Ry

     iteration # 14     ecut=    60.00 Ry     beta= 0.70
     Davidson diagonalization with overlap
     ethr =  7.28E-11,  avg # of iterations =  2.0

     negative rho (up, down):  4.178E-06 0.000E+00

     total cpu time spent up to now is       50.1 secs

     End of self-consistent calculation

          k = 0.0000 0.0000 0.0000 ( 11745 PWs)   bands (ev):

   -29.4689 -29.4689 -29.3975 -29.3975 -29.3532 -29.2908 -29.2908 -29.2547
   -29.2104 -29.2104 -12.1665  -7.1995  -1.4856  -0.8911  -0.8911   0.6995
     1.9075   1.9075   3.4835   3.5335

     occupation numbers 
     1.0000   1.0000   1.0000   1.0000   1.0000   1.0000   1.0000   1.0000
     1.0000   1.0000   1.0000   1.0000   1.0000   1.0000   1.0000   0.0000
     0.0000   0.0000   0.0000   0.0000

          k = 0.0000 0.1285 0.0000 ( 11737 PWs)   bands (ev):

   -29.4681 -29.4626 -29.3966 -29.3936 -29.3516 -29.2935 -29.2910 -29.2564
   -29.2176 -29.2108 -12.0352  -7.1986  -1.9733  -1.4336  -1.1736   1.1940
     1.9621   2.1747   3.6284   3.7147

     occupation numbers 
     1.0000   1.0000   1.0000   1.0000   1.0000   1.0000   1.0000   1.0000
     1.0000   1.0000   1.0000   1.0000   1.0000   1.0000   1.0000   0.0000
     0.0000   0.0000   0.0000   0.0000

          k = 0.0000 0.2570 0.0000 ( 11699 PWs)   bands (ev):

   -29.4660 -29.4452 -29.3944 -29.3826 -29.3461 -29.3015 -29.2923 -29.2617
   -29.2368 -29.2118 -11.6498  -7.3058  -3.2672  -1.7082  -1.3961   0.5899
     2.5580   2.6116   3.9608   4.1278

     occupation numbers 
     1.0000   1.0000   1.0000   1.0000   1.0000   1.0000   1.0000   1.0000
     1.0000   1.0000   1.0000   1.0000   1.0000   1.0000   1.0000   0.0000
     0.0000   0.0000   0.0000   0.0000

          k = 0.0000 0.3855 0.0000 ( 11690 PWs)   bands (ev):

   -29.4635 -29.4221 -29.3890 -29.3667 -29.3373 -29.3141 -29.2966 -29.2764
   -29.2560 -29.2130 -11.0472  -7.7847  -3.8908  -2.1622  -1.7209   0.4074
     2.1996   2.6876   4.4949   4.6121

     occupation numbers 
     1.0000   1.0000   1.0000   1.0000   1.0000   1.0000   1.0000   1.0000
     1.0000   1.0000   1.0000   1.0000   1.0000   1.0000   1.0000   0.0000
     0.0000   0.0000   0.0000   0.0000

          k = 0.0000 0.5140 0.0000 ( 11668 PWs)   bands (ev):

   -29.4618 -29.4089 -29.3726 -29.3485 -29.3320 -29.3302 -29.3040 -29.2984
   -29.2619 -29.2139 -10.3886  -8.5068  -3.8721  -2.4096  -2.2495   0.6799
     1.6709   2.6762   4.2837   5.5426

     occupation numbers 
     1.0000   1.0000   1.0000   1.0000   1.0000   1.0000   1.0000   1.0000
     1.0000   1.0000   1.0000   1.0000   1.0000   1.0000   1.0000   0.0000
     0.0000   0.0000   0.0000   0.0000

          k = 0.1113 0.1928 0.0000 ( 11703 PWs)   bands (ev):

   -29.4667 -29.4506 -29.3945 -29.3869 -29.3478 -29.2993 -29.2912 -29.2599
   -29.2308 -29.2117 -11.7765  -7.2492  -2.8750  -1.8368  -1.3633   1.3587
     1.7693   2.7995   3.8932   3.9998

     occupation numbers 
     1.0000   1.0000   1.0000   1.0000   1.0000   1.0000   1.0000   1.0000
     1.0000   1.0000   1.0000   1.0000   1.0000   1.0000   1.0000   0.0000
     0.0000   0.0000   0.0000   0.0000

          k = 0.1113 0.3213 0.0000 ( 11696 PWs)   bands (ev):

   -29.4645 -29.4291 -29.3907 -29.3753 -29.3397 -29.3107 -29.2925 -29.2691
   -29.2513 -29.2131 -11.2779  -7.5445  -3.6237  -2.5654  -1.4452   0.9786
     2.1593   2.7118   4.3271   4.4798

     occupation numbers 
     1.0000   1.0000   1.0000   1.0000   1.0000   1.0000   1.0000   1.0000
     1.0000   1.0000   1.0000   1.0000   1.0000   1.0000   1.0000   0.0000
     0.0000   0.0000   0.0000   0.0000

          k = 0.1113 0.4498 0.0000 ( 11695 PWs)   bands (ev):

   -29.4625 -29.4080 -29.3808 -29.3598 -29.3305 -29.3257 -29.2972 -29.2911
   -29.2626 -29.2144 -10.6089  -8.2083  -3.8687  -2.8929  -1.9106   1.0206
     1.9728   2.4365   4.6248   5.1823

     occupation numbers 
     1.0000   1.0000   1.0000   1.0000   1.0000   1.0000   1.0000   1.0000
     1.0000   1.0000   1.0000   1.0000   1.0000   1.0000   1.0000   0.0000
     0.0000   0.0000   0.0000   0.0000

          k = 0.1113 0.5783 0.0000 ( 11668 PWs)   bands (ev):

   -29.4617 -29.4023 -29.3647 -29.3464 -29.3423 -29.3277 -29.3068 -29.2994
   -29.2652 -29.2150 -10.1440  -8.7166  -3.8795  -2.8137  -2.3446   1.4096
     1.4644   2.4506   4.3874   6.2395

     occupation numbers 
     1.0000   1.0000   1.0000   1.0000   1.0000   1.0000   1.0000   1.0000
     1.0000   1.0000   1.0000   1.0000   1.0000   1.0000   1.0000   0.0000
     0.0000   0.0000   0.0000   0.0000

          k = 0.2226 0.3855 0.0000 ( 11680 PWs)   bands (ev):

   -29.4630 -29.4055 -29.3843 -29.3662 -29.3289 -29.3262 -29.2916 -29.2881
   -29.2641 -29.2151 -10.6933  -8.0621  -3.5679  -3.5453  -1.7231   1.4220
     1.6108   2.9641   4.8906   5.1153

     occupation numbers 
     1.0000   1.0000   1.0000   1.0000   1.0000   1.0000   1.0000   1.0000
     1.0000   1.0000   1.0000   1.0000   1.0000   1.0000   1.0000   0.0000
     0.0000   0.0000   0.0000   0.0000

          k = 0.2226 0.5140 0.0000 ( 11685 PWs)   bands (ev):

   -29.4619 -29.3888 -29.3704 -29.3526 -29.3452 -29.3210 -29.3120 -29.2911
   -29.2714 -29.2166 -10.0166  -8.7435  -4.1164  -3.1280  -2.2414   0.9608
     2.1843   2.7579   5.1398   6.0011

     occupation numbers 
     1.0000   1.0000   1.0000   1.0000   1.0000   1.0000   1.0000   1.0000
     1.0000   1.0000   1.0000   1.0000   1.0000   1.0000   1.0000   0.0000
     0.0000   0.0000   0.0000   0.0000

          k = 0.3339 0.5783 0.0000 ( 11694 PWs)   bands (ev):

   -29.4617 -29.3675 -29.3675 -29.3669 -29.3346 -29.3346 -29.3162 -29.2819
   -29.2819 -29.2176  -9.3619  -9.3619  -4.3991  -2.6829  -2.6829   0.6315
     2.7109   2.7109   5.7483   6.4346

     occupation numbers 
     1.0000   1.0000   1.0000   1.0000   1.0000   1.0000   1.0000   1.0000
     1.0000   1.0000   1.0000   1.0000   1.0000   1.0000   1.0000   0.0000
     0.0000   0.0000   0.0000   0.0000

     highest occupied, lowest unoccupied level (ev):    -0.8911    0.4074

!    total energy              =    -369.92674547 Ry
     estimated scf accuracy    <          4.0E-10 Ry

     The total energy is the sum of the following terms:
     one-electron contribution =    -792.35045627 Ry
     hartree contribution      =     401.59482900 Ry
     xc contribution           =     -88.01671207 Ry
     ewald contribution        =     108.87964759 Ry
     DFT-D3 Dispersion         =      -0.03405372 Ry

     convergence has been achieved in  14 iterations

     negative rho (up, down):  4.178E-06 0.000E+00

     Forces acting on atoms (cartesian axes, Ry/au):

     atom    1 type  1   force =     0.00000000    0.00000000    0.00043429
     atom    2 type  1   force =     0.00000000    0.00000000   -0.00043429
     The non-local contrib.  to forces
     atom    1 type  1   force =     0.00000000    0.00000000    0.53150467
     atom    2 type  1   force =    -0.00000000   -0.00000000   -0.53153125
     The ionic contribution  to forces
     atom    1 type  1   force =    -0.00000001    0.00000001  -34.73724392
     atom    2 type  1   force =     0.00000001   -0.00000001   34.73724392
     The local contribution  to forces
     atom    1 type  1   force =    -0.00000000   -0.00000000   34.20448390
     atom    2 type  1   force =     0.00000040   -0.00000023  -34.20445635
     The core correction contribution to forces
     atom    1 type  1   force =    -0.00000000    0.00000000    0.00040728
     atom    2 type  1   force =     0.00000004   -0.00000002   -0.00040712
     The Hubbard contrib.    to forces
     atom    1 type  1   force =     0.00000000    0.00000000    0.00000000
     atom    2 type  1   force =     0.00000000    0.00000000    0.00000000
     The SCF correction term to forces
     atom    1 type  1   force =     0.00000000   -0.00000000    0.00000000
     atom    2 type  1   force =    -0.00000000    0.00000000   -0.00011019

     DFT-D3 dispersion contribution to forces:
     atom    1 type  1   force =     0.00000000   -0.00000000    0.00118577
     atom    2 type  1   force =    -0.00000000    0.00000000   -0.00118577

     Total force =     0.000434     Total SCF correction =     0.000110

     DFT-D3 dispersion Force =     0.001677
     SCF correction compared to forces is large: reduce conv_thr to get better values


     Computing stress (Cartesian axis) and pressure


     negative rho (up, down):  4.178E-06 0.000E+00
          total   stress  (Ry/bohr**3)                   (kbar)     P=       -2.14
  -0.00002110   0.00000000   0.00000000           -3.10        0.00        0.00
   0.00000000  -0.00002110   0.00000000            0.00       -3.10        0.00
  -0.00000000  -0.00000000  -0.00000145           -0.00       -0.00       -0.21

     kinetic stress (kbar)   4696.55      0.00      0.00
                                0.00   4696.55      0.00
                                0.00      0.00   4722.94

     local   stress (kbar) -60283.52      0.00     -0.00
                                0.00 -60283.52      0.00
                               -0.00      0.00  60773.10

     nonloc. stress (kbar)     26.78     -0.00      0.00
                               -0.00     26.78      0.00
                               -0.00     -0.00     45.11

     hartree stress (kbar)  32789.10     -0.00     -0.00
                               -0.00  32789.10     -0.00
                               -0.00     -0.00 -25792.09

     exc-cor stress (kbar)   2888.89     -0.00      0.00
                               -0.00   2888.89     -0.00
                                0.00     -0.00   2887.64

     corecor stress (kbar)  -4552.41     -0.00      0.00
                               -0.00  -4552.41     -0.00
                                0.00     -0.00  -4552.88

     ewald   stress (kbar)  24435.17     -0.00      0.00
                               -0.00  24435.17     -0.00
                                0.00     -0.00 -38083.60

     hubbard stress (kbar)      0.00      0.00      0.00
                                0.00      0.00      0.00
                                0.00      0.00      0.00

     DFT-D   stress (kbar)     -3.66     -0.00     -0.00
                               -0.00     -3.66      0.00
                               -0.00      0.00     -0.42

     XDM     stress (kbar)      0.00      0.00      0.00
                                0.00      0.00      0.00
                                0.00      0.00      0.00

     dft-nl  stress (kbar)      0.00      0.00      0.00
                                0.00      0.00      0.00
                                0.00      0.00      0.00

     TS-vdW  stress (kbar)      0.00      0.00      0.00
                                0.00      0.00      0.00
                                0.00      0.00      0.00


     Energy error            =      5.9E-05
     Gradient error          =      4.3E-04
     Cell gradient error     =      2.1E-05


     number of scf cycles    =   3
     number of bfgs steps    =   2

     enthalpy old            =    -369.9266867935 Ry
     enthalpy new            =    -369.9267454666 Ry

     CASE: enthalpy_new < enthalpy_old


     WARNING: bfgs curvature condition failed, Theta= 0.751
     new trust radius        =       0.0100075575 bohr
     new conv_thr            =       0.0000000100 Ry

     new unit-cell volume =   1481.00252 a.u.^3 (   219.46193 Ang^3 )
     density =      0.18176 g/cm^3

CELL_PARAMETERS (alat=  7.79020698)
   0.997053638  -0.000000000   0.000000000
  -0.498526819   0.863473780   0.000000000
   0.000000000   0.000000000   3.638657093

ATOMIC_POSITIONS (crystal)
Sb            0.0000000000        0.0000000000        0.5000000000    0   0   0
Sb            0.3333333330        0.6666666670        0.6088479946



     Writing output data file ./tmp/Sb.save/
     NEW-OLD atomic charge density approx. for the potential

     negative rho (up, down):  7.939E-05 0.000E+00
     extrapolated charge   29.92714, renormalised to   30.00000

     total cpu time spent up to now is       55.8 secs

     Self-consistent Calculation

     iteration #  1     ecut=    60.00 Ry     beta= 0.70
     Davidson diagonalization with overlap
     ethr =  1.00E-06,  avg # of iterations =  8.4

     negative rho (up, down):  2.543E-05 0.000E+00

     total cpu time spent up to now is       57.8 secs

     total energy              =    -369.92302899 Ry
     estimated scf accuracy    <       0.00256617 Ry

     iteration #  2     ecut=    60.00 Ry     beta= 0.70
     Davidson diagonalization with overlap
     ethr =  8.55E-06,  avg # of iterations =  7.8

     negative rho (up, down):  9.496E-06 0.000E+00

     total cpu time spent up to now is       59.6 secs

     total energy              =    -369.92660898 Ry
     estimated scf accuracy    <       0.00577674 Ry

     iteration #  3     ecut=    60.00 Ry     beta= 0.70
     Davidson diagonalization with overlap
     ethr =  8.55E-06,  avg # of iterations =  4.5

     negative rho (up, down):  6.678E-06 0.000E+00

     total cpu time spent up to now is       60.9 secs

     total energy              =    -369.92701020 Ry
     estimated scf accuracy    <       0.00109495 Ry

     iteration #  4     ecut=    60.00 Ry     beta= 0.70
     Davidson diagonalization with overlap
     ethr =  3.65E-06,  avg # of iterations =  1.4

     negative rho (up, down):  5.776E-06 0.000E+00

     total cpu time spent up to now is       62.0 secs

     total energy              =    -369.92688840 Ry
     estimated scf accuracy    <       0.00060235 Ry

     iteration #  5     ecut=    60.00 Ry     beta= 0.70
     Davidson diagonalization with overlap
     ethr =  2.01E-06,  avg # of iterations =  2.6

     negative rho (up, down):  5.507E-06 0.000E+00

     total cpu time spent up to now is       63.2 secs

     total energy              =    -369.92687819 Ry
     estimated scf accuracy    <       0.00023244 Ry

     iteration #  6     ecut=    60.00 Ry     beta= 0.70
     Davidson diagonalization with overlap
     ethr =  7.75E-07,  avg # of iterations =  1.1

     negative rho (up, down):  5.203E-06 0.000E+00

     total cpu time spent up to now is       64.3 secs

     total energy              =    -369.92683295 Ry
     estimated scf accuracy    <       0.00015787 Ry

     iteration #  7     ecut=    60.00 Ry     beta= 0.70
     Davidson diagonalization with overlap
     ethr =  5.26E-07,  avg # of iterations =  2.2

     negative rho (up, down):  4.954E-06 0.000E+00

     total cpu time spent up to now is       65.6 secs

     total energy              =    -369.92680696 Ry
     estimated scf accuracy    <       0.00005465 Ry

     iteration #  8     ecut=    60.00 Ry     beta= 0.70
     Davidson diagonalization with overlap
     ethr =  1.82E-07,  avg # of iterations =  3.4

     negative rho (up, down):  4.974E-06 0.000E+00

     total cpu time spent up to now is       66.8 secs

     total energy              =    -369.92681809 Ry
     estimated scf accuracy    <       0.00000020 Ry

     iteration #  9     ecut=    60.00 Ry     beta= 0.70
     Davidson diagonalization with overlap
     ethr =  6.80E-10,  avg # of iterations =  3.1

     negative rho (up, down):  4.928E-06 0.000E+00

     total cpu time spent up to now is       68.4 secs

     total energy              =    -369.92681796 Ry
     estimated scf accuracy    <       0.00000071 Ry

     iteration # 10     ecut=    60.00 Ry     beta= 0.70
     Davidson diagonalization with overlap
     ethr =  6.80E-10,  avg # of iterations =  2.0

     negative rho (up, down):  4.910E-06 0.000E+00

     total cpu time spent up to now is       70.7 secs

     total energy              =    -369.92681799 Ry
     estimated scf accuracy    <       0.00000008 Ry

     iteration # 11     ecut=    60.00 Ry     beta= 0.70
     Davidson diagonalization with overlap
     ethr =  2.57E-10,  avg # of iterations =  2.0

     negative rho (up, down):  4.897E-06 0.000E+00

     total cpu time spent up to now is       72.9 secs

     End of self-consistent calculation

          k = 0.0000 0.0000 0.0000 ( 11745 PWs)   bands (ev):

   -29.4632 -29.4632 -29.3907 -29.3907 -29.3461 -29.2823 -29.2823 -29.2460
   -29.2012 -29.2012 -12.1839  -7.1877  -1.4780  -0.8836  -0.8836   0.7187
     1.9252   1.9252   3.4936   3.5405

     occupation numbers 
     1.0000   1.0000   1.0000   1.0000   1.0000   1.0000   1.0000   1.0000
     1.0000   1.0000   1.0000   1.0000   1.0000   1.0000   1.0000   0.0000
     0.0000   0.0000   0.0000   0.0000

          k = 0.0000 0.1287 0.0000 ( 11737 PWs)   bands (ev):

   -29.4624 -29.4569 -29.3898 -29.3867 -29.3444 -29.2851 -29.2826 -29.2478
   -29.2084 -29.2015 -12.0520  -7.1860  -1.9711  -1.4253  -1.1679   1.2108
     1.9844   2.1950   3.6384   3.7228

     occupation numbers 
     1.0000   1.0000   1.0000   1.0000   1.0000   1.0000   1.0000   1.0000
     1.0000   1.0000   1.0000   1.0000   1.0000   1.0000   1.0000   0.0000
     0.0000   0.0000   0.0000   0.0000

          k = 0.0000 0.2574 0.0000 ( 11699 PWs)   bands (ev):

   -29.4603 -29.4392 -29.3875 -29.3756 -29.3388 -29.2932 -29.2839 -29.2532
   -29.2279 -29.2026 -11.6647  -7.2921  -3.2721  -1.7054  -1.3859   0.6018
     2.5818   2.6340   3.9702   4.1392

     occupation numbers 
     1.0000   1.0000   1.0000   1.0000   1.0000   1.0000   1.0000   1.0000
     1.0000   1.0000   1.0000   1.0000   1.0000   1.0000   1.0000   0.0000
     0.0000   0.0000   0.0000   0.0000

          k = 0.0000 0.3860 0.0000 ( 11690 PWs)   bands (ev):

   -29.4577 -29.4158 -29.3822 -29.3594 -29.3298 -29.3060 -29.2883 -29.2681
   -29.2473 -29.2038 -11.0589  -7.7748  -3.8962  -2.1617  -1.7108   0.4171
     2.2145   2.7123   4.5092   4.6244

     occupation numbers 
     1.0000   1.0000   1.0000   1.0000   1.0000   1.0000   1.0000   1.0000
     1.0000   1.0000   1.0000   1.0000   1.0000   1.0000   1.0000   0.0000
     0.0000   0.0000   0.0000   0.0000

          k = 0.0000 0.5147 0.0000 ( 11668 PWs)   bands (ev):

   -29.4560 -29.4023 -29.3657 -29.3409 -29.3242 -29.3223 -29.2961 -29.2905
   -29.2532 -29.2047 -10.3960  -8.5043  -3.8726  -2.4103  -2.2431   0.6889
     1.6855   2.7004   4.2949   5.5580

     occupation numbers 
     1.0000   1.0000   1.0000   1.0000   1.0000   1.0000   1.0000   1.0000
     1.0000   1.0000   1.0000   1.0000   1.0000   1.0000   1.0000   0.0000
     0.0000   0.0000   0.0000   0.0000

          k = 0.1114 0.1930 0.0000 ( 11703 PWs)   bands (ev):

   -29.4610 -29.4447 -29.3877 -29.3800 -29.3406 -29.2910 -29.2828 -29.2513
   -29.2218 -29.2024 -11.7920  -7.2355  -2.8778  -1.8344  -1.3542   1.3755
     1.7890   2.8251   3.9038   4.0092

     occupation numbers 
     1.0000   1.0000   1.0000   1.0000   1.0000   1.0000   1.0000   1.0000
     1.0000   1.0000   1.0000   1.0000   1.0000   1.0000   1.0000   0.0000
     0.0000   0.0000   0.0000   0.0000

          k = 0.1114 0.3217 0.0000 ( 11696 PWs)   bands (ev):

   -29.4588 -29.4229 -29.3838 -29.3682 -29.3322 -29.3026 -29.2841 -29.2607
   -29.2425 -29.2038 -11.2908  -7.5321  -3.6297  -2.5666  -1.4348   0.9926
     2.1801   2.7329   4.3380   4.4920

     occupation numbers 
     1.0000   1.0000   1.0000   1.0000   1.0000   1.0000   1.0000   1.0000
     1.0000   1.0000   1.0000   1.0000   1.0000   1.0000   1.0000   0.0000
     0.0000   0.0000   0.0000   0.0000

          k = 0.1114 0.4504 0.0000 ( 11695 PWs)   bands (ev):

   -29.4568 -29.4014 -29.3739 -29.3525 -29.3228 -29.3178 -29.2891 -29.2831
   -29.2539 -29.2052 -10.6179  -8.2022  -3.8720  -2.8956  -1.9022   1.0337
     1.9895   2.4564   4.6385   5.1960

     occupation numbers 
     1.0000   1.0000   1.0000   1.0000   1.0000   1.0000   1.0000   1.0000
     1.0000   1.0000   1.0000   1.0000   1.0000   1.0000   1.0000   0.0000
     0.0000   0.0000   0.0000   0.0000

          k = 0.1114 0.5791 0.0000 ( 11668 PWs)   bands (ev):

   -29.4559 -29.3955 -29.3577 -29.3388 -29.3348 -29.3198 -29.2990 -29.2913
   -29.2566 -29.2058 -10.1498  -8.7154  -3.8810  -2.8156  -2.3388   1.4240
     1.4783   2.4720   4.3973   6.2575

     occupation numbers 
     1.0000   1.0000   1.0000   1.0000   1.0000   1.0000   1.0000   1.0000
     1.0000   1.0000   1.0000   1.0000   1.0000   1.0000   1.0000   0.0000
     0.0000   0.0000   0.0000   0.0000

          k = 0.2229 0.3860 0.0000 ( 11680 PWs)   bands (ev):

   -29.4572 -29.3989 -29.3773 -29.3591 -29.3212 -29.3183 -29.2833 -29.2801
   -29.2555 -29.2059 -10.7029  -8.0540  -3.5741  -3.5486  -1.7133   1.4367
     1.6271   2.9901   4.9024   5.1284

     occupation numbers 
     1.0000   1.0000   1.0000   1.0000   1.0000   1.0000   1.0000   1.0000
     1.0000   1.0000   1.0000   1.0000   1.0000   1.0000   1.0000   0.0000
     0.0000   0.0000   0.0000   0.0000

          k = 0.2229 0.5147 0.0000 ( 11685 PWs)   bands (ev):

   -29.4561 -29.3819 -29.3633 -29.3453 -29.3377 -29.3130 -29.3043 -29.2829
   -29.2629 -29.2074 -10.0220  -8.7411  -4.1246  -3.1274  -2.2343   0.9724
     2.2036   2.7818   5.1513   6.0167

     occupation numbers 
     1.0000   1.0000   1.0000   1.0000   1.0000   1.0000   1.0000   1.0000
     1.0000   1.0000   1.0000   1.0000   1.0000   1.0000   1.0000   0.0000
     0.0000   0.0000   0.0000   0.0000

          k = 0.3343 0.5791 0.0000 ( 11694 PWs)   bands (ev):

   -29.4559 -29.3602 -29.3602 -29.3596 -29.3272 -29.3272 -29.3081 -29.2736
   -29.2736 -29.2085  -9.3632  -9.3632  -4.4102  -2.6781  -2.6781   0.6410
     2.7341   2.7341   5.7624   6.4543

     occupation numbers 
     1.0000   1.0000   1.0000   1.0000   1.0000   1.0000   1.0000   1.0000
     1.0000   1.0000   1.0000   1.0000   1.0000   1.0000   1.0000   0.0000
     0.0000   0.0000   0.0000   0.0000

     highest occupied, lowest unoccupied level (ev):    -0.8836    0.4171

!    total energy              =    -369.92681800 Ry
     estimated scf accuracy    <          2.9E-10 Ry

     The total energy is the sum of the following terms:
     one-electron contribution =    -794.06419759 Ry
     hartree contribution      =     402.46010220 Ry
     xc contribution           =     -88.02071739 Ry
     ewald contribution        =     109.73215278 Ry
     DFT-D3 Dispersion         =      -0.03415800 Ry

     convergence has been achieved in  11 iterations

     negative rho (up, down):  4.897E-06 0.000E+00

     Forces acting on atoms (cartesian axes, Ry/au):

     atom    1 type  1   force =     0.00000000    0.00000000   -0.00143608
     atom    2 type  1   force =     0.00000000    0.00000000    0.00143608
     The non-local contrib.  to forces
     atom    1 type  1   force =    -0.00000000   -0.00000000    0.53230778
     atom    2 type  1   force =    -0.00000000   -0.00000000   -0.53230438
     The ionic contribution  to forces
     atom    1 type  1   force =    -0.00000001    0.00000001  -34.83834446
     atom    2 type  1   force =     0.00000001   -0.00000001   34.83834446
     The local contribution  to forces
     atom    1 type  1   force =     0.00000000   -0.00000000   34.30285017
     atom    2 type  1   force =     0.00000040   -0.00000023  -34.30286846
     The core correction contribution to forces
     atom    1 type  1   force =    -0.00000000    0.00000000    0.00053036
     atom    2 type  1   force =     0.00000004   -0.00000002   -0.00053288
     The Hubbard contrib.    to forces
     atom    1 type  1   force =     0.00000000    0.00000000    0.00000000
     atom    2 type  1   force =     0.00000000    0.00000000    0.00000000
     The SCF correction term to forces
     atom    1 type  1   force =    -0.00000000    0.00000000    0.00000000
     atom    2 type  1   force =    -0.00000000    0.00000000   -0.00001005

     DFT-D3 dispersion contribution to forces:
     atom    1 type  1   force =     0.00000000   -0.00000000    0.00119205
     atom    2 type  1   force =    -0.00000000    0.00000000   -0.00119205

     Total force =     0.001436     Total SCF correction =     0.000010

     DFT-D3 dispersion Force =     0.001686


     Computing stress (Cartesian axis) and pressure


     negative rho (up, down):  4.897E-06 0.000E+00
          total   stress  (Ry/bohr**3)                   (kbar)     P=       -1.58
  -0.00001724  -0.00000000   0.00000000           -2.54       -0.00        0.00
  -0.00000000  -0.00001724   0.00000000           -0.00       -2.54        0.00
  -0.00000000  -0.00000000   0.00000221           -0.00       -0.00        0.33

     kinetic stress (kbar)   4709.10     -0.00     -0.00
                               -0.00   4709.10     -0.00
                               -0.00     -0.00   4735.84

     local   stress (kbar) -60642.28      0.00     -0.00
                                0.00 -60642.28      0.00
                               -0.00      0.00  61163.98

     nonloc. stress (kbar)     27.23      0.00      0.00
                                0.00     27.23      0.00
                               -0.00     -0.00     45.68

     hartree stress (kbar)  32971.94      0.00     -0.00
                                0.00  32971.94     -0.00
                               -0.00     -0.00 -25968.30

     exc-cor stress (kbar)   2896.30     -0.00      0.00
                               -0.00   2896.30     -0.00
                                0.00     -0.00   2895.03

     corecor stress (kbar)  -4564.26     -0.00      0.00
                               -0.00  -4564.26     -0.00
                                0.00     -0.00  -4564.73

     ewald   stress (kbar)  24603.12     -0.00      0.00
                               -0.00  24603.12     -0.00
                                0.00     -0.00 -38306.75

     hubbard stress (kbar)      0.00      0.00      0.00
                                0.00      0.00      0.00
                                0.00      0.00      0.00

     DFT-D   stress (kbar)     -3.68     -0.00     -0.00
                               -0.00     -3.68      0.00
                               -0.00      0.00     -0.42

     XDM     stress (kbar)      0.00      0.00      0.00
                                0.00      0.00      0.00
                                0.00      0.00      0.00

     dft-nl  stress (kbar)      0.00      0.00      0.00
                                0.00      0.00      0.00
                                0.00      0.00      0.00

     TS-vdW  stress (kbar)      0.00      0.00      0.00
                                0.00      0.00      0.00
                                0.00      0.00      0.00


     Energy error            =      7.3E-05
     Gradient error          =      1.4E-03
     Cell gradient error     =      1.7E-05


     number of scf cycles    =   4
     number of bfgs steps    =   3

     enthalpy old            =    -369.9267454666 Ry
     enthalpy new            =    -369.9268180046 Ry

     CASE: enthalpy_new < enthalpy_old

     new trust radius        =       0.0150113362 bohr
     new conv_thr            =       0.0000000100 Ry

     new unit-cell volume =   1475.23122 a.u.^3 (   218.60671 Ang^3 )
     density =      0.18247 g/cm^3

CELL_PARAMETERS (alat=  7.79020698)
   0.995109040  -0.000000000   0.000000000
  -0.497554520   0.861789708   0.000000000
   0.000000000   0.000000000   3.638657093

ATOMIC_POSITIONS (crystal)
Sb            0.0000000000        0.0000000000        0.5000000000    0   0   0
Sb            0.3333333330        0.6666666670        0.6086095015



     Writing output data file ./tmp/Sb.save/
     NEW-OLD atomic charge density approx. for the potential

     negative rho (up, down):  1.281E-04 0.000E+00
     extrapolated charge   29.89046, renormalised to   30.00000

     total cpu time spent up to now is       80.3 secs

     Self-consistent Calculation

     iteration #  1     ecut=    60.00 Ry     beta= 0.70
     Davidson diagonalization with overlap
     c_bands:  1 eigenvalues not converged
     ethr =  1.00E-06,  avg # of iterations =  9.8

     negative rho (up, down):  4.246E-05 0.000E+00

     total cpu time spent up to now is       84.0 secs

     total energy              =    -369.91848717 Ry
     estimated scf accuracy    <       0.00565831 Ry

     iteration #  2     ecut=    60.00 Ry     beta= 0.70
     Davidson diagonalization with overlap
     ethr =  1.89E-05,  avg # of iterations =  7.7

     negative rho (up, down):  1.398E-05 0.000E+00

     total cpu time spent up to now is       87.4 secs

     total energy              =    -369.92648229 Ry
     estimated scf accuracy    <       0.01256339 Ry

     iteration #  3     ecut=    60.00 Ry     beta= 0.70
     Davidson diagonalization with overlap
     ethr =  1.89E-05,  avg # of iterations =  4.1

     negative rho (up, down):  8.832E-06 0.000E+00

     total cpu time spent up to now is       89.4 secs

     total energy              =    -369.92732863 Ry
     estimated scf accuracy    <       0.00211991 Ry

     iteration #  4     ecut=    60.00 Ry     beta= 0.70
     Davidson diagonalization with overlap
     ethr =  7.07E-06,  avg # of iterations =  1.8

     negative rho (up, down):  7.313E-06 0.000E+00

     total cpu time spent up to now is       91.8 secs

     total energy              =    -369.92703998 Ry
     estimated scf accuracy    <       0.00130993 Ry

     iteration #  5     ecut=    60.00 Ry     beta= 0.70
     Davidson diagonalization with overlap
     ethr =  4.37E-06,  avg # of iterations =  3.1

     negative rho (up, down):  6.874E-06 0.000E+00

     total cpu time spent up to now is       93.7 secs

     total energy              =    -369.92702685 Ry
     estimated scf accuracy    <       0.00050812 Ry

     iteration #  6     ecut=    60.00 Ry     beta= 0.70
     Davidson diagonalization with overlap
     ethr =  1.69E-06,  avg # of iterations =  2.3

     negative rho (up, down):  6.414E-06 0.000E+00

     total cpu time spent up to now is       96.0 secs

     total energy              =    -369.92695605 Ry
     estimated scf accuracy    <       0.00036754 Ry

     iteration #  7     ecut=    60.00 Ry     beta= 0.70
     Davidson diagonalization with overlap
     ethr =  1.23E-06,  avg # of iterations =  1.6

     negative rho (up, down):  5.922E-06 0.000E+00

     total cpu time spent up to now is       97.8 secs

     total energy              =    -369.92684386 Ry
     estimated scf accuracy    <       0.00019731 Ry

     iteration #  8     ecut=    60.00 Ry     beta= 0.70
     Davidson diagonalization with overlap
     ethr =  6.58E-07,  avg # of iterations =  4.2

     negative rho (up, down):  5.977E-06 0.000E+00

     total cpu time spent up to now is      100.1 secs

     total energy              =    -369.92688558 Ry
     estimated scf accuracy    <       0.00000058 Ry

     iteration #  9     ecut=    60.00 Ry     beta= 0.70
     Davidson diagonalization with overlap
     ethr =  1.92E-09,  avg # of iterations =  3.0

     negative rho (up, down):  5.955E-06 0.000E+00

     total cpu time spent up to now is      102.3 secs

     total energy              =    -369.92688551 Ry
     estimated scf accuracy    <       0.00000184 Ry

     iteration # 10     ecut=    60.00 Ry     beta= 0.70
     Davidson diagonalization with overlap
     ethr =  1.92E-09,  avg # of iterations =  2.0

     negative rho (up, down):  5.989E-06 0.000E+00

     total cpu time spent up to now is      104.5 secs

     total energy              =    -369.92688548 Ry
     estimated scf accuracy    <       0.00000035 Ry

     iteration # 11     ecut=    60.00 Ry     beta= 0.70
     Davidson diagonalization with overlap
     ethr =  1.15E-09,  avg # of iterations =  2.0

     negative rho (up, down):  6.037E-06 0.000E+00

     total cpu time spent up to now is      106.8 secs

     total energy              =    -369.92688553 Ry
     estimated scf accuracy    <       0.00000002 Ry

     iteration # 12     ecut=    60.00 Ry     beta= 0.70
     Davidson diagonalization with overlap
     ethr =  5.07E-11,  avg # of iterations =  2.0

     negative rho (up, down):  6.037E-06 0.000E+00

     total cpu time spent up to now is      108.9 secs

     End of self-consistent calculation

          k = 0.0000 0.0000 0.0000 ( 11745 PWs)   bands (ev):

   -29.4533 -29.4533 -29.3792 -29.3792 -29.3343 -29.2686 -29.2686 -29.2321
   -29.1863 -29.1863 -12.2059  -7.1716  -1.4683  -0.8681  -0.8681   0.7510
     1.9531   1.9531   3.5084   3.5514

     occupation numbers 
     1.0000   1.0000   1.0000   1.0000   1.0000   1.0000   1.0000   1.0000
     1.0000   1.0000   1.0000   1.0000   1.0000   1.0000   1.0000   0.0000
     0.0000   0.0000   0.0000   0.0000

          k = 0.0000 0.1289 0.0000 ( 11737 PWs)   bands (ev):

   -29.4525 -29.4469 -29.3783 -29.3751 -29.3325 -29.2715 -29.2689 -29.2338
   -29.1937 -29.1867 -12.0731  -7.1685  -1.9636  -1.4145  -1.1551   1.2382
     2.0193   2.2263   3.6532   3.7355

     occupation numbers 
     1.0000   1.0000   1.0000   1.0000   1.0000   1.0000   1.0000   1.0000
     1.0000   1.0000   1.0000   1.0000   1.0000   1.0000   1.0000   0.0000
     0.0000   0.0000   0.0000   0.0000

          k = 0.0000 0.2579 0.0000 ( 11699 PWs)   bands (ev):

   -29.4503 -29.4288 -29.3760 -29.3638 -29.3267 -29.2797 -29.2703 -29.2394
   -29.2136 -29.1877 -11.6830  -7.2723  -3.2759  -1.6969  -1.3717   0.6207
     2.6174   2.6679   3.9843   4.1562

     occupation numbers 
     1.0000   1.0000   1.0000   1.0000   1.0000   1.0000   1.0000   1.0000
     1.0000   1.0000   1.0000   1.0000   1.0000   1.0000   1.0000   0.0000
     0.0000   0.0000   0.0000   0.0000

          k = 0.0000 0.3868 0.0000 ( 11690 PWs)   bands (ev):

   -29.4477 -29.4048 -29.3707 -29.3473 -29.3174 -29.2927 -29.2749 -29.2546
   -29.2333 -29.1890 -11.0725  -7.7591  -3.9022  -2.1566  -1.6961   0.4320
     2.2366   2.7480   4.5299   4.6425

     occupation numbers 
     1.0000   1.0000   1.0000   1.0000   1.0000   1.0000   1.0000   1.0000
     1.0000   1.0000   1.0000   1.0000   1.0000   1.0000   1.0000   0.0000
     0.0000   0.0000   0.0000   0.0000

          k = 0.0000 0.5157 0.0000 ( 11668 PWs)   bands (ev):

   -29.4459 -29.3910 -29.3541 -29.3283 -29.3114 -29.3094 -29.2831 -29.2774
   -29.2393 -29.1899 -10.4037  -8.4983  -3.8724  -2.4069  -2.2336   0.7041
     1.7054   2.7351   4.3109   5.5804

     occupation numbers 
     1.0000   1.0000   1.0000   1.0000   1.0000   1.0000   1.0000   1.0000
     1.0000   1.0000   1.0000   1.0000   1.0000   1.0000   1.0000   0.0000
     0.0000   0.0000   0.0000   0.0000

          k = 0.1117 0.1934 0.0000 ( 11703 PWs)   bands (ev):

   -29.4511 -29.4345 -29.3761 -29.3682 -29.3285 -29.2775 -29.2692 -29.2375
   -29.2073 -29.1875 -11.8113  -7.2160  -2.8781  -1.8270  -1.3416   1.4011
     1.8202   2.8632   3.9195   4.0241

     occupation numbers 
     1.0000   1.0000   1.0000   1.0000   1.0000   1.0000   1.0000   1.0000
[...]
        k(    6) = (   0.1111111   0.1111111   0.0000000), wk =   0.1481481
        k(    7) = (   0.1111111   0.2222222   0.0000000), wk =   0.2962963
        k(    8) = (   0.1111111   0.3333333   0.0000000), wk =   0.2962963
        k(    9) = (   0.1111111   0.4444444   0.0000000), wk =   0.1481481
        k(   10) = (   0.2222222   0.2222222   0.0000000), wk =   0.1481481
        k(   11) = (   0.2222222   0.3333333   0.0000000), wk =   0.2962963
        k(   12) = (   0.3333333   0.3333333   0.0000000), wk =   0.0493827

     Dense  grid:   359483 G-vectors     FFT dimensions: (  60,  60, 225)

     Smooth grid:    90913 G-vectors     FFT dimensions: (  40,  40, 144)

     Dynamical RAM for                 wfc:       0.87 MB

     Dynamical RAM for     wfc (w. buffer):      11.29 MB

     Dynamical RAM for           str. fact:       1.37 MB

     Dynamical RAM for           local pot:       0.71 MB

     Dynamical RAM for          nlocal pot:       1.56 MB

     Dynamical RAM for                qrad:       3.93 MB

     Dynamical RAM for          rho,v,vnew:       8.81 MB

     Dynamical RAM for               rhoin:       2.94 MB

     Dynamical RAM for            rho*nmix:      21.94 MB

     Dynamical RAM for           G-vectors:       5.32 MB

     Dynamical RAM for          h,s,v(r/c):       0.07 MB

     Dynamical RAM for          <psi|beta>:       0.01 MB

     Dynamical RAM for                 psi:       1.74 MB

     Dynamical RAM for                hpsi:       1.74 MB

     Dynamical RAM for                spsi:       1.74 MB

     Dynamical RAM for      wfcinit/wfcrot:       1.75 MB

     Dynamical RAM for           addusdens:     257.81 MB

     Dynamical RAM for          addusforce:     261.24 MB

     Dynamical RAM for         addusstress:     275.64 MB

     Estimated static dynamical RAM per process >      68.43 MB

     Estimated max dynamical RAM per process >     344.07 MB

     Estimated total dynamical RAM >       1.34 GB

     Initial potential from superposition of free atoms

     starting charge   27.99997, renormalised to   30.00000

     negative rho (up, down):  2.276E-03 0.000E+00
     Starting wfcs are   18 randomized atomic wfcs +    2 random wfcs

     total cpu time spent up to now is      458.3 secs

     Self-consistent Calculation

     iteration #  1     ecut=    60.00 Ry     beta= 0.70
     Davidson diagonalization with overlap
     c_bands:  1 eigenvalues not converged
     c_bands:  1 eigenvalues not converged
     c_bands:  1 eigenvalues not converged
     c_bands:  2 eigenvalues not converged
     ethr =  1.00E-06,  avg # of iterations = 17.7

     negative rho (up, down):  1.816E-05 0.000E+00

     total cpu time spent up to now is      462.3 secs

     total energy              =    -369.01199230 Ry
     estimated scf accuracy    <       2.31871305 Ry

     iteration #  2     ecut=    60.00 Ry     beta= 0.70
     Davidson diagonalization with overlap
     ethr =  7.73E-03,  avg # of iterations =  2.8

     negative rho (up, down):  3.406E-07 0.000E+00

     total cpu time spent up to now is      464.0 secs

     total energy              =    -369.83968370 Ry
     estimated scf accuracy    <       0.44300345 Ry

     iteration #  3     ecut=    60.00 Ry     beta= 0.70
     Davidson diagonalization with overlap
     ethr =  1.48E-03,  avg # of iterations =  2.2

     total cpu time spent up to now is      465.6 secs

     total energy              =    -369.92586383 Ry
     estimated scf accuracy    <       0.00803695 Ry

     iteration #  4     ecut=    60.00 Ry     beta= 0.70
     Davidson diagonalization with overlap
     ethr =  2.68E-05,  avg # of iterations =  6.7

     negative rho (up, down):  3.003E-07 0.000E+00

     total cpu time spent up to now is      467.3 secs

     total energy              =    -369.92700770 Ry
     estimated scf accuracy    <       0.00053114 Ry

     iteration #  5     ecut=    60.00 Ry     beta= 0.70
     Davidson diagonalization with overlap
     ethr =  1.77E-06,  avg # of iterations =  5.3

     negative rho (up, down):  1.404E-06 0.000E+00

     total cpu time spent up to now is      468.9 secs

     total energy              =    -369.92706259 Ry
     estimated scf accuracy    <       0.00010002 Ry

     iteration #  6     ecut=    60.00 Ry     beta= 0.70
     Davidson diagonalization with overlap
     ethr =  3.33E-07,  avg # of iterations =  2.0

     negative rho (up, down):  1.901E-06 0.000E+00

     total cpu time spent up to now is      470.2 secs

     total energy              =    -369.92706881 Ry
     estimated scf accuracy    <       0.00014438 Ry

     iteration #  7     ecut=    60.00 Ry     beta= 0.70
     Davidson diagonalization with overlap
     ethr =  3.33E-07,  avg # of iterations =  1.7

     negative rho (up, down):  2.852E-06 0.000E+00

     total cpu time spent up to now is      471.5 secs

     total energy              =    -369.92708605 Ry
     estimated scf accuracy    <       0.00000056 Ry

     iteration #  8     ecut=    60.00 Ry     beta= 0.70
     Davidson diagonalization with overlap
     ethr =  1.86E-09,  avg # of iterations =  2.4

     negative rho (up, down):  2.908E-06 0.000E+00

     total cpu time spent up to now is      473.0 secs

     total energy              =    -369.92708619 Ry
     estimated scf accuracy    <       0.00000005 Ry

     iteration #  9     ecut=    60.00 Ry     beta= 0.70
     Davidson diagonalization with overlap
     ethr =  1.71E-10,  avg # of iterations =  2.0

     negative rho (up, down):  2.952E-06 0.000E+00

     total cpu time spent up to now is      474.3 secs

     End of self-consistent calculation

          k = 0.0000 0.0000 0.0000 ( 11409 PWs)   bands (ev):

   -29.3644 -29.3644 -29.2890 -29.2890 -29.2476 -29.1786 -29.1786 -29.1420
   -29.0950 -29.0950 -12.1689  -7.1551  -1.4807  -0.6664  -0.6664   0.9935
     2.1203   2.1203   3.5732   3.6111

     occupation numbers 
     1.0000   1.0000   1.0000   1.0000   1.0000   1.0000   1.0000   1.0000
     1.0000   1.0000   1.0000   1.0000   1.0000   1.0000   1.0000   0.0000
     0.0000   0.0000   0.0000   0.0000

          k = 0.0000 0.1300 0.0000 ( 11435 PWs)   bands (ev):

   -29.3635 -29.3579 -29.2883 -29.2849 -29.2456 -29.1814 -29.1789 -29.1437
   -29.1026 -29.0953 -12.0330  -7.1410  -1.7962  -1.4191  -0.9644   1.4190
     2.2142   2.3920   3.7205   3.8135

     occupation numbers 
     1.0000   1.0000   1.0000   1.0000   1.0000   1.0000   1.0000   1.0000
     1.0000   1.0000   1.0000   1.0000   1.0000   1.0000   1.0000   0.0000
     0.0000   0.0000   0.0000   0.0000

          k = 0.0000 0.2601 0.0000 ( 11420 PWs)   bands (ev):

   -29.3611 -29.3396 -29.2865 -29.2735 -29.2390 -29.1896 -29.1807 -29.1485
   -29.1235 -29.0963 -11.6336  -7.2102  -3.1749  -1.5234  -1.3496   0.7332
     2.7619   2.8163   4.0501   4.2362

     occupation numbers 
     1.0000   1.0000   1.0000   1.0000   1.0000   1.0000   1.0000   1.0000
     1.0000   1.0000   1.0000   1.0000   1.0000   1.0000   1.0000   0.0000
     0.0000   0.0000   0.0000   0.0000

          k = 0.0000 0.3901 0.0000 ( 11362 PWs)   bands (ev):

   -29.3582 -29.3150 -29.2819 -29.2569 -29.2284 -29.2024 -29.1862 -29.1618
   -29.1453 -29.0975 -11.0080  -7.6603  -3.8602  -1.9956  -1.6489   0.5090
     2.3257   2.8627   4.5991   4.7148

     occupation numbers 
     1.0000   1.0000   1.0000   1.0000   1.0000   1.0000   1.0000   1.0000
     1.0000   1.0000   1.0000   1.0000   1.0000   1.0000   1.0000   0.0000
     0.0000   0.0000   0.0000   0.0000

          k = 0.0000 0.5202 0.0000 ( 11336 PWs)   bands (ev):

   -29.3563 -29.3010 -29.2653 -29.2379 -29.2220 -29.2190 -29.1948 -29.1852
   -29.1510 -29.0983 -10.3200  -8.3991  -3.8408  -2.2525  -2.2004   0.8176
     1.7356   2.8336   4.3551   5.6597

     occupation numbers 
     1.0000   1.0000   1.0000   1.0000   1.0000   1.0000   1.0000   1.0000
     1.0000   1.0000   1.0000   1.0000   1.0000   1.0000   1.0000   0.0000
     0.0000   0.0000   0.0000   0.0000

          k = 0.1126 0.1951 0.0000 ( 11421 PWs)   bands (ev):

   -29.3619 -29.3454 -29.2863 -29.2782 -29.2410 -29.1874 -29.1793 -29.1469
   -29.1168 -29.0961 -11.7650  -7.1654  -2.7526  -1.6702  -1.3257   1.5239
     2.0058   3.0138   3.9969   4.1158

     occupation numbers 
     1.0000   1.0000   1.0000   1.0000   1.0000   1.0000   1.0000   1.0000
     1.0000   1.0000   1.0000   1.0000   1.0000   1.0000   1.0000   0.0000
     0.0000   0.0000   0.0000   0.0000

          k = 0.1126 0.3251 0.0000 ( 11376 PWs)   bands (ev):

   -29.3594 -29.3227 -29.2829 -29.2663 -29.2313 -29.1992 -29.1811 -29.1548
   -29.1401 -29.0975 -11.2478  -7.4235  -3.5705  -2.4321  -1.3752   1.0996
     2.3224   2.9033   4.4314   4.5970

     occupation numbers 
     1.0000   1.0000   1.0000   1.0000   1.0000   1.0000   1.0000   1.0000
     1.0000   1.0000   1.0000   1.0000   1.0000   1.0000   1.0000   0.0000
     0.0000   0.0000   0.0000   0.0000

          k = 0.1126 0.4551 0.0000 ( 11372 PWs)   bands (ev):

   -29.3571 -29.3002 -29.2735 -29.2502 -29.2203 -29.2147 -29.1873 -29.1772
   -29.1521 -29.0989 -10.5519  -8.0851  -3.8353  -2.7842  -1.8345   1.1153
     2.1067   2.5816   4.7322   5.2892

     occupation numbers 
     1.0000   1.0000   1.0000   1.0000   1.0000   1.0000   1.0000   1.0000
     1.0000   1.0000   1.0000   1.0000   1.0000   1.0000   1.0000   0.0000
     0.0000   0.0000   0.0000   0.0000

          k = 0.1126 0.5852 0.0000 ( 11356 PWs)   bands (ev):

   -29.3561 -29.2943 -29.2568 -29.2359 -29.2326 -29.2166 -29.1937 -29.1901
   -29.1545 -29.0995 -10.0644  -8.6124  -3.8330  -2.7033  -2.2973   1.4614
     1.6499   2.5648   4.4688   6.3945

     occupation numbers 
     1.0000   1.0000   1.0000   1.0000   1.0000   1.0000   1.0000   1.0000
     1.0000   1.0000   1.0000   1.0000   1.0000   1.0000   1.0000   0.0000
     0.0000   0.0000   0.0000   0.0000

          k = 0.2252 0.3901 0.0000 ( 11369 PWs)   bands (ev):

   -29.3575 -29.2979 -29.2763 -29.2574 -29.2186 -29.2155 -29.1807 -29.1741
   -29.1541 -29.0996 -10.6407  -7.9300  -3.5105  -3.4814  -1.6404   1.5043
     1.6952   3.1890   5.0715   5.2240

     occupation numbers 
     1.0000   1.0000   1.0000   1.0000   1.0000   1.0000   1.0000   1.0000
     1.0000   1.0000   1.0000   1.0000   1.0000   1.0000   1.0000   0.0000
     0.0000   0.0000   0.0000   0.0000

          k = 0.2252 0.5202 0.0000 ( 11372 PWs)   bands (ev):

   -29.3562 -29.2806 -29.2622 -29.2430 -29.2356 -29.2092 -29.1995 -29.1811
   -29.1611 -29.1012  -9.9361  -8.6264  -4.0577  -3.0761  -2.1716   1.0058
     2.2801   2.9262   5.3071   6.1349

     occupation numbers 
     1.0000   1.0000   1.0000   1.0000   1.0000   1.0000   1.0000   1.0000
     1.0000   1.0000   1.0000   1.0000   1.0000   1.0000   1.0000   0.0000
     0.0000   0.0000   0.0000   0.0000

          k = 0.3379 0.5852 0.0000 ( 11424 PWs)   bands (ev):

   -29.3559 -29.2592 -29.2583 -29.2582 -29.2237 -29.2237 -29.2037 -29.1719
   -29.1719 -29.1023  -9.2588  -9.2588  -4.3521  -2.6210  -2.6210   0.6562
     2.8229   2.8229   5.8621   6.6950

     occupation numbers 
     1.0000   1.0000   1.0000   1.0000   1.0000   1.0000   1.0000   1.0000
     1.0000   1.0000   1.0000   1.0000   1.0000   1.0000   1.0000   0.0000
     0.0000   0.0000   0.0000   0.0000

     highest occupied, lowest unoccupied level (ev):    -0.6664    0.5090

!    total energy              =    -369.92708619 Ry
     estimated scf accuracy    <          3.4E-09 Ry

     The total energy is the sum of the following terms:
     one-electron contribution =    -802.18907068 Ry
     hartree contribution      =     406.63701506 Ry
     xc contribution           =     -88.03328637 Ry
     ewald contribution        =     113.69315294 Ry
     DFT-D3 Dispersion         =      -0.03489715 Ry

     convergence has been achieved in   9 iterations

     negative rho (up, down):  2.952E-06 0.000E+00

     Forces acting on atoms (cartesian axes, Ry/au):

     atom    1 type  1   force =     0.00000000    0.00000000    0.00000189
     atom    2 type  1   force =    -0.00000000   -0.00000000   -0.00000189
     The non-local contrib.  to forces
     atom    1 type  1   force =    -0.00000000   -0.00000000    0.51630653
     atom    2 type  1   force =    -0.00000000   -0.00000000   -0.51631847
     The ionic contribution  to forces
     atom    1 type  1   force =    -0.00000001    0.00000001  -35.85971171
     atom    2 type  1   force =     0.00000001   -0.00000001   35.85971171
     The local contribution  to forces
     atom    1 type  1   force =    -0.00000000   -0.00000000   35.34137505
     atom    2 type  1   force =     0.00000040   -0.00000023  -35.34133000
     The core correction contribution to forces
     atom    1 type  1   force =    -0.00000000    0.00000000    0.00076818
     atom    2 type  1   force =     0.00000004   -0.00000002   -0.00076927
     The Hubbard contrib.    to forces
     atom    1 type  1   force =     0.00000000    0.00000000    0.00000000
     atom    2 type  1   force =     0.00000000    0.00000000    0.00000000
     The SCF correction term to forces
     atom    1 type  1   force =     0.00000000   -0.00000000   -0.00000000
     atom    2 type  1   force =    -0.00000000    0.00000000   -0.00005046

     DFT-D3 dispersion contribution to forces:
     atom    1 type  1   force =     0.00000000   -0.00000000    0.00125569
     atom    2 type  1   force =    -0.00000000    0.00000000   -0.00125569

     Total force =     0.000002     Total SCF correction =     0.000050

     DFT-D3 dispersion Force =     0.001776
     SCF correction compared to forces is large: reduce conv_thr to get better values


     Computing stress (Cartesian axis) and pressure


     negative rho (up, down):  2.952E-06 0.000E+00
          total   stress  (Ry/bohr**3)                   (kbar)     P=        0.12
   0.00000116   0.00000000   0.00000000            0.17        0.00        0.00
   0.00000000   0.00000116   0.00000000            0.00        0.17        0.00
   0.00000000   0.00000000   0.00000016            0.00        0.00        0.02

     kinetic stress (kbar)   4812.11      0.00     -0.00
                                0.00   4812.11     -0.00
                               -0.00     -0.00   4834.94

     local   stress (kbar) -62896.79      0.00     -0.00
                                0.00 -62896.79      0.00
                               -0.00      0.00  63568.22

     nonloc. stress (kbar)     29.03      0.00      0.00
                                0.00     29.03      0.00
                                0.00      0.00     47.40

     hartree stress (kbar)  34153.78     -0.00     -0.00
                               -0.00  34153.78     -0.00
                               -0.00     -0.00 -27058.31

     exc-cor stress (kbar)   2957.55     -0.00      0.00
                               -0.00   2957.55     -0.00
                                0.00     -0.00   2956.27

     corecor stress (kbar)  -4661.35     -0.00      0.00
                               -0.00  -4661.35     -0.00
                                0.00     -0.00  -4661.81

     ewald   stress (kbar)  25609.64     -0.00      0.00
                               -0.00  25609.64     -0.00
                                0.00     -0.00 -39686.24

     hubbard stress (kbar)      0.00      0.00      0.00
                                0.00      0.00      0.00
                                0.00      0.00      0.00

     DFT-D   stress (kbar)     -3.80     -0.00     -0.00
                               -0.00     -3.80      0.00
                               -0.00      0.00     -0.45

     XDM     stress (kbar)      0.00      0.00      0.00
                                0.00      0.00      0.00
                                0.00      0.00      0.00

     dft-nl  stress (kbar)      0.00      0.00      0.00
                                0.00      0.00      0.00
                                0.00      0.00      0.00

     TS-vdW  stress (kbar)      0.00      0.00      0.00
                                0.00      0.00      0.00
                                0.00      0.00      0.00



     Writing output data file ./tmp/Sb.save/

     init_run     :      2.86s CPU      3.20s WALL (       2 calls)
     electrons    :    308.27s CPU    343.03s WALL (      23 calls)
     update_pot   :     26.85s CPU     27.33s WALL (      21 calls)
     forces       :     22.95s CPU     24.79s WALL (      23 calls)
     stress       :     73.25s CPU     76.59s WALL (      23 calls)

     Called by init_run:
     wfcinit      :      0.53s CPU      0.56s WALL (       2 calls)
     wfcinit:atom :      0.01s CPU      0.01s WALL (      24 calls)
     wfcinit:wfcr :      0.51s CPU      0.54s WALL (      24 calls)
     potinit      :      0.67s CPU      0.69s WALL (       2 calls)
     hinit0       :      1.32s CPU      1.32s WALL (       2 calls)

     Called by electrons:
     c_bands      :    196.43s CPU    211.25s WALL (     227 calls)
     sum_band     :     65.42s CPU     75.65s WALL (     227 calls)
     v_of_rho     :     16.19s CPU     17.50s WALL (     242 calls)
     v_h          :      1.23s CPU      1.40s WALL (     242 calls)
     v_xc         :     18.16s CPU     19.57s WALL (     288 calls)
     newd         :     30.30s CPU     39.18s WALL (     242 calls)
     mix_rho      :      2.11s CPU      2.34s WALL (     227 calls)

     Called by c_bands:
     init_us_2    :      2.44s CPU      3.13s WALL (    6024 calls)
     cegterg      :    190.20s CPU    204.69s WALL (    2724 calls)

     Called by sum_band:
     sum_band:wei :      0.00s CPU      0.00s WALL (     227 calls)
     sum_band:loo :     33.70s CPU     34.90s WALL (     227 calls)
     sum_band:buf :      0.25s CPU      0.26s WALL (    2724 calls)
     sum_band:ini :      1.07s CPU      1.46s WALL (    2724 calls)
     sum_band:cal :      2.65s CPU      3.01s WALL (    2724 calls)
     sum_band:bec :      0.02s CPU      0.02s WALL (    2724 calls)
     addusdens    :     29.40s CPU     38.22s WALL (     227 calls)
     addusd:skk   :      0.07s CPU      0.10s WALL (     227 calls)
     addusd:dgemm :      4.23s CPU      9.46s WALL (     227 calls)
     addusd:qvan2 :     22.37s CPU     24.03s WALL (     227 calls)

     Called by *egterg:
     cdiaghg      :      2.84s CPU      3.69s WALL (   10261 calls)
     cegterg:over :     10.91s CPU     13.09s WALL (    7885 calls)
     cegterg:upda :      4.62s CPU      6.00s WALL (    7885 calls)
     cegterg:last :      6.36s CPU      7.58s WALL (    5154 calls)
     h_psi        :    154.19s CPU    160.07s WALL (   10633 calls)
     s_psi        :      4.32s CPU      5.66s WALL (   10633 calls)
     g_psi        :      0.35s CPU      0.35s WALL (    7885 calls)

     Called by h_psi:
     h_psi:calbec :      8.29s CPU      9.76s WALL (   10633 calls)
     vloc_psi     :    140.17s CPU    142.54s WALL (   10633 calls)
     add_vuspsi   :      5.18s CPU      7.04s WALL (   10633 calls)

     General routines
     calbec       :     12.65s CPU     14.82s WALL (   14737 calls)
     fft          :     15.75s CPU     16.51s WALL (    3704 calls)
     ffts         :      0.40s CPU      0.45s WALL (     469 calls)
     fftw         :    159.38s CPU    162.05s WALL (  326304 calls)
     interpolate  :      1.13s CPU      1.28s WALL (     242 calls)

     Parallel routines
     fft_scatt_xy :     14.97s CPU     15.28s WALL (  330477 calls)
     fft_scatt_yz :     33.48s CPU     34.29s WALL (  330477 calls)

     PWSCF        :   7m17.07s CPU   7m58.59s WALL


   This run was terminated on:  16:18:41  29Apr2026            

=------------------------------------------------------------------------------=
   JOB DONE.
=------------------------------------------------------------------------------=
Note: The following floating-point exceptions are signalling: IEEE_INVALID_FLAG IEEE_DIVIDE_BY_ZERO IEEE_UNDERFLOW_FLAG
