
     Program PWSCF v.6.7MaX starts on 29Apr2026 at 16:27:32 

     This program is part of the open-source Quantum ESPRESSO suite
     for quantum simulation of materials; please cite
         "P. Giannozzi et al., J. Phys.:Condens. Matter 21 395502 (2009);
         "P. Giannozzi et al., J. Phys.:Condens. Matter 29 465901 (2017);
          URL http://www.quantum-espresso.org", 
     in publications or presentations arising from this work. More details at
     http://www.quantum-espresso.org/quote

     Parallel version (MPI & OpenMP), running on       4 processor cores
     Number of MPI processes:                 4
     Threads/MPI process:                     1

     MPI processes distributed on     1 nodes
     R & G space division:  proc/nbgrp/npool/nimage =       4
     Waiting for input...
     Reading input from standard input

     Current dimensions of program PWSCF are:
     Max number of different atomic species (ntypx) = 10
     Max number of k-points (npk) =  40000
     Max angular momentum in pseudopotentials (lmaxx) =  3

     --------------------------------------------
     Parameters for DFT-D3 Dispersion Correction:
     --------------------------------------------
       Reference C6 values for interpolation: 

         atom   Coordination number   C6
         Sb         0.000           985.88
         Sb         0.975           946.94
         Sb         1.952           896.11
         Sb         2.932           834.76

       Values used:

         atom   Coordination number  R0_AB[au]  C6      C8
         Sb         3.190            3.794    834.93  89598.79
         Sb         3.190            3.794    834.93  89598.79

         Molecular C6 ( Ry / a.u.^6 ) =      3339.71


     Subspace diagonalization in iterative solution of the eigenvalue problem:
     a serial algorithm will be used


     Parallelization info
     --------------------
     sticks:   dense  smooth     PW     G-vecs:    dense   smooth      PW
     Min         604     241     70                89780    22707    3478
     Max         605     243     71                89797    22716    3485
     Sum        2419     967    283               359159    90841   13929



     bravais-lattice index     =            4
     lattice parameter (alat)  =       7.6831  a.u.
     unit-cell volume          =    1449.0693 (a.u.)^3
     number of atoms/cell      =            2
     number of atomic types    =            1
     number of electrons       =        30.00
     number of Kohn-Sham states=           20
     kinetic-energy cutoff     =      60.0000  Ry
     charge density cutoff     =     600.0000  Ry
     scf convergence threshold =      1.0E-06
     mixing beta               =       0.7000
     number of iterations used =            8  plain     mixing
     energy convergence thresh.=      1.0E-04
     force convergence thresh. =      1.0E-03
     press convergence thresh. =      1.0E-03
     Exchange-correlation=  SLA  PW   PBX  PBC
                           (   1   4   3   4   0   0   0)
     nstep                     =           50


     celldm(1)=   7.683060  celldm(2)=   0.000000  celldm(3)=   3.689402
     celldm(4)=   0.000000  celldm(5)=   0.000000  celldm(6)=   0.000000

     crystal axes: (cart. coord. in units of alat)
               a(1) = (   1.000000   0.000000   0.000000 )  
               a(2) = (  -0.500000   0.866025   0.000000 )  
               a(3) = (   0.000000   0.000000   3.689402 )  

     reciprocal axes: (cart. coord. in units 2 pi/alat)
               b(1) = (  1.000000  0.577350 -0.000000 )  
               b(2) = (  0.000000  1.154701  0.000000 )  
               b(3) = (  0.000000 -0.000000  0.271047 )  


     PseudoPot. # 1 for Sb read from file:
     /Users/cdhogan/Research/Codes/espresso/PSEUDO/SSSP_1.3.0_PBE_eff/sb_pbe_v1.4.uspp.F.UPF
     MD5 check sum: 9bc50dfb53373b713f5709b9110fe27f
     Pseudo is Ultrasoft + core correction, Zval = 15.0
     Generated by new atomic code, or converted to UPF format
     Using radial grid of  891 points,  6 beta functions with: 
                l(1) =   0
                l(2) =   0
                l(3) =   1
                l(4) =   1
                l(5) =   2
                l(6) =   2
     Q(r) pseudized with  8 coefficients,  rinner =    1.350   1.350   1.350
                                                       1.350   1.350

     atomic species   valence    mass     pseudopotential
        Sb            15.00    12.01100     Sb( 1.00)

      6 Sym. Ops. (no inversion) found


                                    s                        frac. trans.

      isym =  1     identity                                     

 cryst.   s( 1) = (     1          0          0      )
                  (     0          1          0      )
                  (     0          0          1      )

 cart.    s( 1) = (  1.0000000  0.0000000  0.0000000 )
                  (  0.0000000  1.0000000  0.0000000 )
                  (  0.0000000  0.0000000  1.0000000 )


      isym =  2     120 deg rotation - cryst. axis [0,0,1]       

 cryst.   s( 2) = (     0          1          0      )
                  (    -1         -1          0      )
                  (     0          0          1      )

 cart.    s( 2) = ( -0.5000000 -0.8660254  0.0000000 )
                  (  0.8660254 -0.5000000  0.0000000 )
                  (  0.0000000  0.0000000  1.0000000 )


      isym =  3     120 deg rotation - cryst. axis [0,0,-1]      

 cryst.   s( 3) = (    -1         -1          0      )
                  (     1          0          0      )
                  (     0          0          1      )

 cart.    s( 3) = ( -0.5000000  0.8660254  0.0000000 )
                  ( -0.8660254 -0.5000000  0.0000000 )
                  (  0.0000000  0.0000000  1.0000000 )


      isym =  4     inv. 180 deg rotation - cart. axis [1,0,0]   

 cryst.   s( 4) = (    -1          0          0      )
                  (     1          1          0      )
                  (     0          0          1      )

 cart.    s( 4) = ( -1.0000000  0.0000000  0.0000000 )
                  (  0.0000000  1.0000000  0.0000000 )
                  (  0.0000000  0.0000000  1.0000000 )


      isym =  5     inv. 180 deg rotation - cryst. axis [0,1,0]  

 cryst.   s( 5) = (     1          1          0      )
                  (     0         -1          0      )
                  (     0          0          1      )

 cart.    s( 5) = (  0.5000000  0.8660254  0.0000000 )
                  (  0.8660254 -0.5000000  0.0000000 )
                  (  0.0000000  0.0000000  1.0000000 )


      isym =  6     inv. 180 deg rotation - cryst. axis [1,1,0]  

 cryst.   s( 6) = (     0         -1          0      )
                  (    -1          0          0      )
                  (     0          0          1      )

 cart.    s( 6) = (  0.5000000 -0.8660254  0.0000000 )
                  ( -0.8660254 -0.5000000  0.0000000 )
                  (  0.0000000  0.0000000  1.0000000 )


     point group C_3v (3m)  
     there are  3 classes
     the character table:

       E     2C3   3s_v 
A_1    1.00  1.00  1.00
A_2    1.00  1.00 -1.00
E      2.00 -1.00  0.00

     the symmetry operations in each class and the name of the first element:

     E        1
          identity                                               
     2C3      2    3
          120 deg rotation - cryst. axis [0,0,1]                 
     3s_v     4    5    6
          inv. 180 deg rotation - cart. axis [1,0,0]             

   Cartesian axes

     site n.     atom                  positions (alat units)
         1           Sb  tau(   1) = (   0.0000000   0.0000000   1.8447008  )
         2           Sb  tau(   2) = (  -0.0000000   0.5773503   2.2512728  )

   Crystallographic axes

     site n.     atom                  positions (cryst. coord.)
         1           Sb  tau(   1) = (  0.0000000  0.0000000  0.5000000  )
         2           Sb  tau(   2) = (  0.3333333  0.6666667  0.6102000  )

     number of k points=    27
                       cart. coord. in units 2pi/alat
        k(    1) = (   0.0000000   0.0000000   0.0000000), wk =   0.0088889
        k(    2) = (   0.0000000   0.0769800   0.0000000), wk =   0.0533333
        k(    3) = (   0.0000000   0.1539601   0.0000000), wk =   0.0533333
        k(    4) = (   0.0000000   0.2309401   0.0000000), wk =   0.0533333
        k(    5) = (   0.0000000   0.3079201   0.0000000), wk =   0.0533333
        k(    6) = (   0.0000000   0.3849002   0.0000000), wk =   0.0533333
        k(    7) = (   0.0000000   0.4618802   0.0000000), wk =   0.0533333
        k(    8) = (   0.0000000   0.5388603   0.0000000), wk =   0.0533333
        k(    9) = (   0.0666667   0.1154701   0.0000000), wk =   0.0533333
        k(   10) = (   0.0666667   0.1924501   0.0000000), wk =   0.1066667
        k(   11) = (   0.0666667   0.2694301   0.0000000), wk =   0.1066667
        k(   12) = (   0.0666667   0.3464102   0.0000000), wk =   0.1066667
        k(   13) = (   0.0666667   0.4233902   0.0000000), wk =   0.1066667
        k(   14) = (   0.0666667   0.5003702   0.0000000), wk =   0.1066667
        k(   15) = (   0.0666667   0.5773503   0.0000000), wk =   0.0533333
        k(   16) = (   0.1333333   0.2309401   0.0000000), wk =   0.0533333
        k(   17) = (   0.1333333   0.3079201   0.0000000), wk =   0.1066667
        k(   18) = (   0.1333333   0.3849002   0.0000000), wk =   0.1066667
        k(   19) = (   0.1333333   0.4618802   0.0000000), wk =   0.1066667
        k(   20) = (   0.1333333   0.5388603   0.0000000), wk =   0.1066667
        k(   21) = (   0.2000000   0.3464102   0.0000000), wk =   0.0533333
        k(   22) = (   0.2000000   0.4233902   0.0000000), wk =   0.1066667
        k(   23) = (   0.2000000   0.5003702   0.0000000), wk =   0.1066667
        k(   24) = (   0.2000000   0.5773503   0.0000000), wk =   0.0533333
        k(   25) = (   0.2666667   0.4618802   0.0000000), wk =   0.0533333
        k(   26) = (   0.2666667   0.5388603   0.0000000), wk =   0.1066667
        k(   27) = (   0.3333333   0.5773503   0.0000000), wk =   0.0177778

                       cryst. coord.
        k(    1) = (   0.0000000   0.0000000   0.0000000), wk =   0.0088889
        k(    2) = (   0.0000000   0.0666667   0.0000000), wk =   0.0533333
        k(    3) = (   0.0000000   0.1333333   0.0000000), wk =   0.0533333
        k(    4) = (   0.0000000   0.2000000   0.0000000), wk =   0.0533333
        k(    5) = (   0.0000000   0.2666667   0.0000000), wk =   0.0533333
        k(    6) = (   0.0000000   0.3333333   0.0000000), wk =   0.0533333
        k(    7) = (   0.0000000   0.4000000   0.0000000), wk =   0.0533333
        k(    8) = (   0.0000000   0.4666667   0.0000000), wk =   0.0533333
        k(    9) = (   0.0666667   0.0666667   0.0000000), wk =   0.0533333
        k(   10) = (   0.0666667   0.1333333   0.0000000), wk =   0.1066667
        k(   11) = (   0.0666667   0.2000000   0.0000000), wk =   0.1066667
        k(   12) = (   0.0666667   0.2666667   0.0000000), wk =   0.1066667
        k(   13) = (   0.0666667   0.3333333   0.0000000), wk =   0.1066667
        k(   14) = (   0.0666667   0.4000000   0.0000000), wk =   0.1066667
        k(   15) = (   0.0666667   0.4666667   0.0000000), wk =   0.0533333
        k(   16) = (   0.1333333   0.1333333   0.0000000), wk =   0.0533333
        k(   17) = (   0.1333333   0.2000000   0.0000000), wk =   0.1066667
        k(   18) = (   0.1333333   0.2666667   0.0000000), wk =   0.1066667
        k(   19) = (   0.1333333   0.3333333   0.0000000), wk =   0.1066667
        k(   20) = (   0.1333333   0.4000000   0.0000000), wk =   0.1066667
        k(   21) = (   0.2000000   0.2000000   0.0000000), wk =   0.0533333
        k(   22) = (   0.2000000   0.2666667   0.0000000), wk =   0.1066667
        k(   23) = (   0.2000000   0.3333333   0.0000000), wk =   0.1066667
        k(   24) = (   0.2000000   0.4000000   0.0000000), wk =   0.0533333
        k(   25) = (   0.2666667   0.2666667   0.0000000), wk =   0.0533333
        k(   26) = (   0.2666667   0.3333333   0.0000000), wk =   0.1066667
        k(   27) = (   0.3333333   0.3333333   0.0000000), wk =   0.0177778

     Dense  grid:   359159 G-vectors     FFT dimensions: (  60,  60, 225)

     Smooth grid:    90841 G-vectors     FFT dimensions: (  40,  40, 144)

     Dynamical RAM for                 wfc:       0.87 MB

     Dynamical RAM for     wfc (w. buffer):      24.29 MB

     Dynamical RAM for           str. fact:       1.37 MB

     Dynamical RAM for           local pot:       0.00 MB

     Dynamical RAM for          nlocal pot:       1.56 MB

     Dynamical RAM for                qrad:       3.93 MB

     Dynamical RAM for          rho,v,vnew:       8.81 MB

     Dynamical RAM for               rhoin:       2.94 MB

     Dynamical RAM for            rho*nmix:      21.92 MB

     Dynamical RAM for           G-vectors:       5.31 MB

     Dynamical RAM for          h,s,v(r/c):       0.07 MB

     Dynamical RAM for          <psi|beta>:       0.01 MB

     Dynamical RAM for                 psi:       1.74 MB

     Dynamical RAM for                hpsi:       1.74 MB

     Dynamical RAM for                spsi:       1.74 MB

     Dynamical RAM for      wfcinit/wfcrot:       1.74 MB

     Dynamical RAM for           addusdens:     257.60 MB

     Dynamical RAM for          addusforce:     261.03 MB

     Dynamical RAM for         addusstress:     275.41 MB

     Estimated static dynamical RAM per process >      80.70 MB

     Estimated max dynamical RAM per process >     356.11 MB

     Estimated total dynamical RAM >       1.39 GB

     Initial potential from superposition of free atoms

     starting charge   27.99997, renormalised to   30.00000

     negative rho (up, down):  2.275E-03 0.000E+00
     Starting wfcs are   18 randomized atomic wfcs +    2 random wfcs

     total cpu time spent up to now is        1.8 secs

     Self-consistent Calculation

     iteration #  1     ecut=    60.00 Ry     beta= 0.70
     Davidson diagonalization with overlap
     ethr =  1.00E-02,  avg # of iterations =  7.2

     negative rho (up, down):  1.433E-05 0.000E+00

     total cpu time spent up to now is        5.1 secs

     total energy              =    -369.04913917 Ry
     estimated scf accuracy    <       2.27277269 Ry

     iteration #  2     ecut=    60.00 Ry     beta= 0.70
     Davidson diagonalization with overlap
     ethr =  7.58E-03,  avg # of iterations =  2.5

     negative rho (up, down):  2.531E-07 0.000E+00

     total cpu time spent up to now is        7.7 secs

     total energy              =    -369.84220243 Ry
     estimated scf accuracy    <       0.42341311 Ry

     iteration #  3     ecut=    60.00 Ry     beta= 0.70
     Davidson diagonalization with overlap
     ethr =  1.41E-03,  avg # of iterations =  2.0

     total cpu time spent up to now is       10.1 secs

     total energy              =    -369.92607451 Ry
     estimated scf accuracy    <       0.00764370 Ry

     iteration #  4     ecut=    60.00 Ry     beta= 0.70
     Davidson diagonalization with overlap
     ethr =  2.55E-05,  avg # of iterations =  6.8

     negative rho (up, down):  1.032E-07 0.000E+00

     total cpu time spent up to now is       13.0 secs

     total energy              =    -369.92713946 Ry
     estimated scf accuracy    <       0.00054847 Ry

     iteration #  5     ecut=    60.00 Ry     beta= 0.70
     Davidson diagonalization with overlap
     ethr =  1.83E-06,  avg # of iterations =  6.1

     negative rho (up, down):  1.529E-06 0.000E+00

     total cpu time spent up to now is       15.8 secs

     total energy              =    -369.92704867 Ry
     estimated scf accuracy    <       0.00153763 Ry

     iteration #  6     ecut=    60.00 Ry     beta= 0.70
     Davidson diagonalization with overlap
     ethr =  1.83E-06,  avg # of iterations =  3.7

     negative rho (up, down):  1.819E-06 0.000E+00

     total cpu time spent up to now is       18.0 secs

     total energy              =    -369.92724170 Ry
     estimated scf accuracy    <       0.00003495 Ry

     iteration #  7     ecut=    60.00 Ry     beta= 0.70
     Davidson diagonalization with overlap
     ethr =  1.17E-07,  avg # of iterations =  2.0

     negative rho (up, down):  2.956E-06 0.000E+00

     total cpu time spent up to now is       20.3 secs

     End of self-consistent calculation

          k = 0.0000 0.0000 0.0000 ( 11385 PWs)   bands (ev):

   -29.3590 -29.3590 -29.2837 -29.2837 -29.2415 -29.1730 -29.1730 -29.1358
   -29.0891 -29.0891 -12.1673  -7.1539  -1.4809  -0.6573  -0.6573   1.0040
     2.1281   2.1281   3.5736   3.6121

     occupation numbers 
     1.0000   1.0000   1.0000   1.0000   1.0000   1.0000   1.0000   1.0000
     1.0000   1.0000   1.0000   1.0000   1.0000   1.0000   1.0000   0.0000
     0.0000   0.0000   0.0000   0.0000

          k = 0.0000 0.0770 0.0000 ( 11403 PWs)   bands (ev):

   -29.3587 -29.3567 -29.2834 -29.2822 -29.2408 -29.1740 -29.1731 -29.1364
   -29.0919 -29.0893 -12.1182  -7.1467  -1.4569  -1.1898  -0.7758   1.3974
     2.0291   2.2401   3.6303   3.6854

     occupation numbers 
     1.0000   1.0000   1.0000   1.0000   1.0000   1.0000   1.0000   1.0000
     1.0000   1.0000   1.0000   1.0000   1.0000   1.0000   1.0000   0.0000
     0.0000   0.0000   0.0000   0.0000

          k = 0.0000 0.1540 0.0000 ( 11423 PWs)   bands (ev):

   -29.3577 -29.3497 -29.2826 -29.2778 -29.2386 -29.1770 -29.1735 -29.1381
   -29.1001 -29.0897 -11.9719  -7.1384  -2.0936  -1.3970  -1.0625   1.3046
     2.4120   2.4870   3.7785   3.8994

     occupation numbers 
     1.0000   1.0000   1.0000   1.0000   1.0000   1.0000   1.0000   1.0000
     1.0000   1.0000   1.0000   1.0000   1.0000   1.0000   1.0000   0.0000
     0.0000   0.0000   0.0000   0.0000

          k = 0.0000 0.2309 0.0000 ( 11413 PWs)   bands (ev):

   -29.3562 -29.3386 -29.2815 -29.2709 -29.2346 -29.1820 -29.1745 -29.1410
   -29.1127 -29.0902 -11.7315  -7.1733  -2.9338  -1.4038  -1.3471   0.8653
     2.7148   2.8019   3.9773   4.1534

     occupation numbers 
     1.0000   1.0000   1.0000   1.0000   1.0000   1.0000   1.0000   1.0000
     1.0000   1.0000   1.0000   1.0000   1.0000   1.0000   1.0000   0.0000
     0.0000   0.0000   0.0000   0.0000

          k = 0.0000 0.3079 0.0000 ( 11404 PWs)   bands (ev):

   -29.3545 -29.3245 -29.2799 -29.2620 -29.2291 -29.1887 -29.1766 -29.1456
   -29.1279 -29.0910 -11.4041  -7.3262  -3.5513  -1.7255  -1.4033   0.5568
     2.7041   2.8391   4.2434   4.4292

     occupation numbers 
     1.0000   1.0000   1.0000   1.0000   1.0000   1.0000   1.0000   1.0000
     1.0000   1.0000   1.0000   1.0000   1.0000   1.0000   1.0000   0.0000
     0.0000   0.0000   0.0000   0.0000

          k = 0.0000 0.3849 0.0000 ( 11354 PWs)   bands (ev):

   -29.3528 -29.3097 -29.2763 -29.2515 -29.2225 -29.1969 -29.1805 -29.1557
   -29.1394 -29.0917 -11.0051  -7.6556  -3.8583  -1.9885  -1.6463   0.5122
     2.3298   2.8685   4.6009   4.7163

     occupation numbers 
     1.0000   1.0000   1.0000   1.0000   1.0000   1.0000   1.0000   1.0000
     1.0000   1.0000   1.0000   1.0000   1.0000   1.0000   1.0000   0.0000
     0.0000   0.0000   0.0000   0.0000

          k = 0.0000 0.4619 0.0000 ( 11352 PWs)   bands (ev):

   -29.3515 -29.2991 -29.2677 -29.2402 -29.2171 -29.2065 -29.1861 -29.1709
   -29.1438 -29.0922 -10.5725  -8.1102  -3.8924  -2.1724  -1.9965   0.6759
     1.9447   2.8525   4.4917   5.2451

     occupation numbers 
     1.0000   1.0000   1.0000   1.0000   1.0000   1.0000   1.0000   1.0000
     1.0000   1.0000   1.0000   1.0000   1.0000   1.0000   1.0000   0.0000
     0.0000   0.0000   0.0000   0.0000

          k = 0.0000 0.5389 0.0000 ( 11328 PWs)   bands (ev):

   -29.3507 -29.2950 -29.2560 -29.2286 -29.2173 -29.2172 -29.1890 -29.1822
   -29.1453 -29.0926 -10.2233  -8.4974  -3.8134  -2.2667  -2.2667   0.8826
     1.6627   2.8339   4.3110   5.8726

     occupation numbers 
     1.0000   1.0000   1.0000   1.0000   1.0000   1.0000   1.0000   1.0000
     1.0000   1.0000   1.0000   1.0000   1.0000   1.0000   1.0000   0.0000
     0.0000   0.0000   0.0000   0.0000

          k = 0.0667 0.1155 0.0000 ( 11417 PWs)   bands (ev):

   -29.3580 -29.3520 -29.2828 -29.2794 -29.2393 -29.1761 -29.1733 -29.1375
   -29.0974 -29.0895 -12.0205  -7.1388  -1.8224  -1.4154  -1.0331   1.7518
     1.7899   2.5683   3.7366   3.8285

     occupation numbers 
     1.0000   1.0000   1.0000   1.0000   1.0000   1.0000   1.0000   1.0000
     1.0000   1.0000   1.0000   1.0000   1.0000   1.0000   1.0000   0.0000
     0.0000   0.0000   0.0000   0.0000

          k = 0.0667 0.1925 0.0000 ( 11438 PWs)   bands (ev):

   -29.3568 -29.3429 -29.2816 -29.2741 -29.2361 -29.1803 -29.1738 -29.1399
   -29.1078 -29.0901 -11.8270  -7.1508  -2.5996  -1.4629  -1.3313   1.3472
     2.2016   2.9204   3.9244   4.0630

     occupation numbers 
     1.0000   1.0000   1.0000   1.0000   1.0000   1.0000   1.0000   1.0000
     1.0000   1.0000   1.0000   1.0000   1.0000   1.0000   1.0000   0.0000
     0.0000   0.0000   0.0000   0.0000

          k = 0.0667 0.2694 0.0000 ( 11398 PWs)   bands (ev):

   -29.3552 -29.3302 -29.2801 -29.2666 -29.2312 -29.1864 -29.1749 -29.1435
   -29.1219 -29.0908 -11.5425  -7.2425  -3.2789  -1.8493  -1.3251   0.9514
     2.5086   2.9561   4.1453   4.3179

     occupation numbers 
     1.0000   1.0000   1.0000   1.0000   1.0000   1.0000   1.0000   1.0000
     1.0000   1.0000   1.0000   1.0000   1.0000   1.0000   1.0000   0.0000
     0.0000   0.0000   0.0000   0.0000

          k = 0.0667 0.3464 0.0000 ( 11362 PWs)   bands (ev):

   -29.3536 -29.3152 -29.2777 -29.2574 -29.2247 -29.1942 -29.1774 -29.1504
   -29.1360 -29.0916 -11.1773  -7.4866  -3.7156  -2.1760  -1.4486   0.7493
     2.6355   2.6437   4.4754   4.6375

     occupation numbers 
     1.0000   1.0000   1.0000   1.0000   1.0000   1.0000   1.0000   1.0000
     1.0000   1.0000   1.0000   1.0000   1.0000   1.0000   1.0000   0.0000
     0.0000   0.0000   0.0000   0.0000

          k = 0.0667 0.4234 0.0000 ( 11362 PWs)   bands (ev):

   -29.3521 -29.3016 -29.2721 -29.2469 -29.2181 -29.2034 -29.1817 -29.1643
   -29.1432 -29.0923 -10.7544  -7.8930  -3.8711  -2.4013  -1.7420   0.8011
     2.2119   2.6811   4.6707   5.0163

     occupation numbers 
     1.0000   1.0000   1.0000   1.0000   1.0000   1.0000   1.0000   1.0000
     1.0000   1.0000   1.0000   1.0000   1.0000   1.0000   1.0000   0.0000
     0.0000   0.0000   0.0000   0.0000

          k = 0.0667 0.5004 0.0000 ( 11355 PWs)   bands (ev):

   -29.3510 -29.2943 -29.2608 -29.2359 -29.2166 -29.2117 -29.1871 -29.1781
   -29.1458 -29.0928 -10.3381  -8.3454  -3.8435  -2.4960  -2.0931   1.0245
     1.8150   2.6963   4.4608   5.6129

     occupation numbers 
     1.0000   1.0000   1.0000   1.0000   1.0000   1.0000   1.0000   1.0000
     1.0000   1.0000   1.0000   1.0000   1.0000   1.0000   1.0000   0.0000
     0.0000   0.0000   0.0000   0.0000

          k = 0.0667 0.5774 0.0000 ( 11322 PWs)   bands (ev):

   -29.3507 -29.2925 -29.2527 -29.2267 -29.2247 -29.2144 -29.1867 -29.1856
   -29.1466 -29.0930 -10.1272  -8.5771  -3.8024  -2.4691  -2.3019   1.2252
     1.5688   2.7035   4.3474   6.2282

     occupation numbers 
     1.0000   1.0000   1.0000   1.0000   1.0000   1.0000   1.0000   1.0000
     1.0000   1.0000   1.0000   1.0000   1.0000   1.0000   1.0000   0.0000
     0.0000   0.0000   0.0000   0.0000

          k = 0.1333 0.2309 0.0000 ( 11375 PWs)   bands (ev):

   -29.3556 -29.3320 -29.2796 -29.2688 -29.2317 -29.1859 -29.1740 -29.1429
   -29.1197 -29.0908 -11.5890  -7.2173  -3.1035  -2.0297  -1.3074   1.4534
     2.0762   3.0950   4.1675   4.2595

     occupation numbers 
     1.0000   1.0000   1.0000   1.0000   1.0000   1.0000   1.0000   1.0000
     1.0000   1.0000   1.0000   1.0000   1.0000   1.0000   1.0000   0.0000
     0.0000   0.0000   0.0000   0.0000

          k = 0.1333 0.3079 0.0000 ( 11359 PWs)   bands (ev):

   -29.3541 -29.3179 -29.2772 -29.2620 -29.2255 -29.1935 -29.1749 -29.1482
   -29.1336 -29.0918 -11.2648  -7.3997  -3.4995  -2.5307  -1.3533   1.2817
     2.1642   3.0255   4.4393   4.5717

     occupation numbers 
     1.0000   1.0000   1.0000   1.0000   1.0000   1.0000   1.0000   1.0000
     1.0000   1.0000   1.0000   1.0000   1.0000   1.0000   1.0000   0.0000
     0.0000   0.0000   0.0000   0.0000

          k = 0.1333 0.3849 0.0000 ( 11350 PWs)   bands (ev):

   -29.3526 -29.3027 -29.2737 -29.2534 -29.2181 -29.2029 -29.1769 -29.1598
   -29.1434 -29.0927 -10.8686  -7.7364  -3.7269  -2.8504  -1.5519   1.1792
     2.1479   2.8148   4.7802   4.9535

     occupation numbers 
     1.0000   1.0000   1.0000   1.0000   1.0000   1.0000   1.0000   1.0000
     1.0000   1.0000   1.0000   1.0000   1.0000   1.0000   1.0000   0.0000
     0.0000   0.0000   0.0000   0.0000

          k = 0.1333 0.4619 0.0000 ( 11338 PWs)   bands (ev):

   -29.3514 -29.2913 -29.2655 -29.2436 -29.2152 -29.2101 -29.1815 -29.1746
   -29.1477 -29.0935 -10.4354  -8.1804  -3.8206  -2.9419  -1.8886   1.2377
     2.0384   2.6251   4.7835   5.4445

     occupation numbers 
     1.0000   1.0000   1.0000   1.0000   1.0000   1.0000   1.0000   1.0000
     1.0000   1.0000   1.0000   1.0000   1.0000   1.0000   1.0000   0.0000
     0.0000   0.0000   0.0000   0.0000

          k = 0.1333 0.5389 0.0000 ( 11357 PWs)   bands (ev):

   -29.3508 -29.2871 -29.2529 -29.2345 -29.2256 -29.2092 -29.1883 -29.1815
   -29.1495 -29.0940 -10.0764  -8.5652  -3.8578  -2.8374  -2.2260   1.3555
     1.9188   2.5320   4.5953   6.0919

     occupation numbers 
     1.0000   1.0000   1.0000   1.0000   1.0000   1.0000   1.0000   1.0000
     1.0000   1.0000   1.0000   1.0000   1.0000   1.0000   1.0000   0.0000
     0.0000   0.0000   0.0000   0.0000

          k = 0.2000 0.3464 0.0000 ( 11359 PWs)   bands (ev):

   -29.3528 -29.3030 -29.2736 -29.2563 -29.2180 -29.2029 -29.1749 -29.1581
   -29.1437 -29.0930 -10.9075  -7.6790  -3.5569  -3.1472  -1.4850   1.5437
     1.7545   3.1520   4.8083   4.9228

     occupation numbers 
     1.0000   1.0000   1.0000   1.0000   1.0000   1.0000   1.0000   1.0000
     1.0000   1.0000   1.0000   1.0000   1.0000   1.0000   1.0000   0.0000
     0.0000   0.0000   0.0000   0.0000

          k = 0.2000 0.4234 0.0000 ( 11359 PWs)   bands (ev):

   -29.3517 -29.2881 -29.2689 -29.2485 -29.2141 -29.2101 -29.1761 -29.1733
   -29.1495 -29.0941 -10.4899  -8.0726  -3.6928  -3.3526  -1.7467   1.3545
     1.8432   3.1080   5.1467   5.3880

     occupation numbers 
     1.0000   1.0000   1.0000   1.0000   1.0000   1.0000   1.0000   1.0000
     1.0000   1.0000   1.0000   1.0000   1.0000   1.0000   1.0000   0.0000
     0.0000   0.0000   0.0000   0.0000

          k = 0.2000 0.5004 0.0000 ( 11356 PWs)   bands (ev):

   -29.3509 -29.2795 -29.2585 -29.2393 -29.2261 -29.2050 -29.1895 -29.1764
   -29.1531 -29.0949 -10.0639  -8.5055  -3.9570  -3.1193  -2.0921   1.1273
     2.1639   2.8698   5.1126   5.9641

     occupation numbers 
     1.0000   1.0000   1.0000   1.0000   1.0000   1.0000   1.0000   1.0000
     1.0000   1.0000   1.0000   1.0000   1.0000   1.0000   1.0000   0.0000
     0.0000   0.0000   0.0000   0.0000

          k = 0.2000 0.5774 0.0000 ( 11348 PWs)   bands (ev):

   -29.3506 -29.2777 -29.2473 -29.2389 -29.2308 -29.2065 -29.1942 -29.1772
   -29.1544 -29.0952  -9.8286  -8.7474  -4.0494  -2.9321  -2.3155   1.0510
     2.5073   2.5495   5.0339   6.3484

     occupation numbers 
     1.0000   1.0000   1.0000   1.0000   1.0000   1.0000   1.0000   1.0000
     1.0000   1.0000   1.0000   1.0000   1.0000   1.0000   1.0000   0.0000
     0.0000   0.0000   0.0000   0.0000

          k = 0.2667 0.4619 0.0000 ( 11374 PWs)   bands (ev):

   -29.3510 -29.2733 -29.2646 -29.2405 -29.2263 -29.2035 -29.1898 -29.1738
   -29.1551 -29.0953 -10.0638  -8.4732  -4.0102  -3.2147  -2.0256   1.0185
     2.1452   3.1730   5.7263   5.8727

     occupation numbers 
     1.0000   1.0000   1.0000   1.0000   1.0000   1.0000   1.0000   1.0000
     1.0000   1.0000   1.0000   1.0000   1.0000   1.0000   1.0000   0.0000
     0.0000   0.0000   0.0000   0.0000

          k = 0.2667 0.5389 0.0000 ( 11377 PWs)   bands (ev):

   -29.3506 -29.2666 -29.2544 -29.2399 -29.2299 -29.2051 -29.1987 -29.1719
   -29.1593 -29.0960  -9.6616  -8.8644  -4.2338  -2.9135  -2.3359   0.7930
     2.5241   2.9691   5.8341   6.0416

     occupation numbers 
     1.0000   1.0000   1.0000   1.0000   1.0000   1.0000   1.0000   1.0000
     1.0000   1.0000   1.0000   1.0000   1.0000   1.0000   1.0000   0.0000
     0.0000   0.0000   0.0000   0.0000

          k = 0.3333 0.5774 0.0000 ( 11406 PWs)   bands (ev):

   -29.3504 -29.2537 -29.2534 -29.2526 -29.2181 -29.2174 -29.1983 -29.1661
   -29.1656 -29.0965  -9.2541  -9.2539  -4.3492  -2.6185  -2.6184   0.6564
     2.8257   2.8259   5.8640   6.7032

     occupation numbers 
     1.0000   1.0000   1.0000   1.0000   1.0000   1.0000   1.0000   1.0000
     1.0000   1.0000   1.0000   1.0000   1.0000   1.0000   1.0000   0.0000
     0.0000   0.0000   0.0000   0.0000

     highest occupied, lowest unoccupied level (ev):    -0.6573    0.5122

!    total energy              =    -369.92724613 Ry
     estimated scf accuracy    <       0.00000058 Ry

     The total energy is the sum of the following terms:
     one-electron contribution =    -802.45758930 Ry
     hartree contribution      =     406.76841571 Ry
     xc contribution           =     -88.03270482 Ry
     ewald contribution        =     113.82955589 Ry
     DFT-D3 Dispersion         =      -0.03492361 Ry

     convergence has been achieved in   7 iterations

     negative rho (up, down):  2.956E-06 0.000E+00

     Forces acting on atoms (cartesian axes, Ry/au):

     atom    1 type  1   force =     0.00000000   -0.00000000   -0.00090136
     atom    2 type  1   force =     0.00000000    0.00000000    0.00090136
     The non-local contrib.  to forces
     atom    1 type  1   force =     0.00000000   -0.00000000    0.51481825
     atom    2 type  1   force =     0.00000000   -0.00000000   -0.51373835
     The ionic contribution  to forces
     atom    1 type  1   force =    -0.00000001    0.00000001  -35.89719076
     atom    2 type  1   force =     0.00000001   -0.00000001   35.89719076
     The local contribution  to forces
     atom    1 type  1   force =    -0.00000000   -0.00000000   35.38182090
     atom    2 type  1   force =     0.00000040   -0.00000023  -35.38075159
     The core correction contribution to forces
     atom    1 type  1   force =    -0.00000000    0.00000000    0.00092624
     atom    2 type  1   force =     0.00000004   -0.00000002   -0.00095141
     The Hubbard contrib.    to forces
     atom    1 type  1   force =     0.00000000    0.00000000    0.00000000
     atom    2 type  1   force =     0.00000000    0.00000000    0.00000000
     The SCF correction term to forces
     atom    1 type  1   force =     0.00000000   -0.00000000   -0.00000000
     atom    2 type  1   force =    -0.00000000    0.00000000    0.00057031

     DFT-D3 dispersion contribution to forces:
     atom    1 type  1   force =     0.00000000   -0.00000000    0.00125799
     atom    2 type  1   force =    -0.00000000    0.00000000   -0.00125799

     Total force =     0.000901     Total SCF correction =     0.000570

     DFT-D3 dispersion Force =     0.001779
     SCF correction compared to forces is large: reduce conv_thr to get better values


     Computing stress (Cartesian axis) and pressure


     negative rho (up, down):  2.956E-06 0.000E+00
          total   stress  (Ry/bohr**3)                   (kbar)     P=       -1.12
  -0.00000712   0.00000000   0.00000000           -1.05        0.00        0.00
   0.00000000  -0.00000712   0.00000000            0.00       -1.05        0.00
   0.00000000   0.00000000  -0.00000868            0.00        0.00       -1.28

     kinetic stress (kbar)   4815.66      0.00      0.00
                                0.00   4815.66      0.00
                                0.00      0.00   4838.54

     local   stress (kbar) -62976.65      0.00     -0.00
                                0.00 -62976.65      0.00
                               -0.00      0.00  63653.43

     nonloc. stress (kbar)     27.82      0.00      0.00
                                0.00     27.82     -0.00
                                0.00      0.00     46.49

     hartree stress (kbar)  34195.32     -0.00     -0.00
                               -0.00  34195.32     -0.00
                               -0.00     -0.00 -27096.76

     exc-cor stress (kbar)   2959.80     -0.00      0.00
                               -0.00   2959.80     -0.00
                                0.00     -0.00   2958.53

     corecor stress (kbar)  -4664.87     -0.00      0.00
                               -0.00  -4664.87     -0.00
                                0.00     -0.00  -4665.34

     ewald   stress (kbar)  25645.67     -0.00      0.00
                               -0.00  25645.67     -0.00
                                0.00     -0.00 -39735.72

     hubbard stress (kbar)      0.00      0.00      0.00
                                0.00      0.00      0.00
                                0.00      0.00      0.00

     DFT-D   stress (kbar)     -3.80     -0.00     -0.00
                               -0.00     -3.80      0.00
                               -0.00      0.00     -0.46

     XDM     stress (kbar)      0.00      0.00      0.00
                                0.00      0.00      0.00
                                0.00      0.00      0.00

     dft-nl  stress (kbar)      0.00      0.00      0.00
                                0.00      0.00      0.00
                                0.00      0.00      0.00

     TS-vdW  stress (kbar)      0.00      0.00      0.00
                                0.00      0.00      0.00
                                0.00      0.00      0.00



     BFGS Geometry Optimization
     Energy error            =      0.0E+00
     Gradient error          =      9.0E-04
     Cell gradient error     =      7.1E-06


     number of scf cycles    =   1
     number of bfgs steps    =   0

     enthalpy new            =    -369.9272461320 Ry

     new trust radius        =       0.0013551349 bohr
     new conv_thr            =       0.0000010000 Ry

     new unit-cell volume =   1448.55348 a.u.^3 (   214.65348 Ang^3 )
     density =      0.18583 g/cm^3

CELL_PARAMETERS (alat=  7.68305950)
   0.999822005   0.000000000   0.000000000
  -0.499911002   0.865871256   0.000000000
   0.000000000   0.000000000   3.689401579

ATOMIC_POSITIONS (crystal)
Sb            0.0000000000        0.0000000000        0.5000000000    0   0   0
Sb            0.3333333330        0.6666666670        0.6102317988



     Writing output data file ./tmp/Sb.save/
     NEW-OLD atomic charge density approx. for the potential

     negative rho (up, down):  7.969E-06 0.000E+00
     extrapolated charge   29.99003, renormalised to   30.00000

     total cpu time spent up to now is       26.0 secs

     Self-consistent Calculation

     iteration #  1     ecut=    60.00 Ry     beta= 0.70
     Davidson diagonalization with overlap
     ethr =  1.00E-06,  avg # of iterations =  3.8

     negative rho (up, down):  4.423E-06 0.000E+00

     total cpu time spent up to now is       28.8 secs

     total energy              =    -369.92716701 Ry
     estimated scf accuracy    <       0.00005496 Ry

     iteration #  2     ecut=    60.00 Ry     beta= 0.70
     Davidson diagonalization with overlap
     ethr =  1.83E-07,  avg # of iterations =  4.4

     negative rho (up, down):  3.449E-06 0.000E+00

     total cpu time spent up to now is       31.7 secs

     total energy              =    -369.92724070 Ry
     estimated scf accuracy    <       0.00011415 Ry

     iteration #  3     ecut=    60.00 Ry     beta= 0.70
     Davidson diagonalization with overlap
     ethr =  1.83E-07,  avg # of iterations =  2.0

     negative rho (up, down):  3.248E-06 0.000E+00

     total cpu time spent up to now is       33.9 secs

     total energy              =    -369.92724852 Ry
     estimated scf accuracy    <       0.00001909 Ry

     iteration #  4     ecut=    60.00 Ry     beta= 0.70
     Davidson diagonalization with overlap
     ethr =  6.36E-08,  avg # of iterations =  1.0

     negative rho (up, down):  3.157E-06 0.000E+00

     total cpu time spent up to now is       35.9 secs

     total energy              =    -369.92724621 Ry
     estimated scf accuracy    <       0.00001129 Ry

     iteration #  5     ecut=    60.00 Ry     beta= 0.70
     Davidson diagonalization with overlap
     ethr =  3.76E-08,  avg # of iterations =  1.1

     negative rho (up, down):  3.119E-06 0.000E+00

     total cpu time spent up to now is       37.9 secs

     total energy              =    -369.92724573 Ry
     estimated scf accuracy    <       0.00000434 Ry

     iteration #  6     ecut=    60.00 Ry     beta= 0.70
     Davidson diagonalization with overlap
     ethr =  1.45E-08,  avg # of iterations =  1.0

     negative rho (up, down):  3.060E-06 0.000E+00

     total cpu time spent up to now is       39.9 secs

     total energy              =    -369.92724486 Ry
     estimated scf accuracy    <       0.00000230 Ry

     iteration #  7     ecut=    60.00 Ry     beta= 0.70
     Davidson diagonalization with overlap
     ethr =  7.67E-09,  avg # of iterations =  2.0

     negative rho (up, down):  3.013E-06 0.000E+00

     total cpu time spent up to now is       42.1 secs

     End of self-consistent calculation

          k = 0.0000 0.0000 0.0000 ( 11385 PWs)   bands (ev):

   -29.3558 -29.3558 -29.2803 -29.2803 -29.2387 -29.1697 -29.1697 -29.1329
   -29.0859 -29.0859 -12.1651  -7.1526  -1.4802  -0.6518  -0.6518   1.0108
     2.1329   2.1329   3.5766   3.6153

     occupation numbers 
     1.0000   1.0000   1.0000   1.0000   1.0000   1.0000   1.0000   1.0000
     1.0000   1.0000   1.0000   1.0000   1.0000   1.0000   1.0000   0.0000
     0.0000   0.0000   0.0000   0.0000

          k = 0.0000 0.0770 0.0000 ( 11403 PWs)   bands (ev):

   -29.3554 -29.3534 -29.2801 -29.2789 -29.2379 -29.1708 -29.1698 -29.1335
   -29.0887 -29.0861 -12.1160  -7.1453  -1.4562  -1.1844  -0.7704   1.4039
     2.0339   2.2448   3.6334   3.6887

     occupation numbers 
     1.0000   1.0000   1.0000   1.0000   1.0000   1.0000   1.0000   1.0000
     1.0000   1.0000   1.0000   1.0000   1.0000   1.0000   1.0000   0.0000
     0.0000   0.0000   0.0000   0.0000

          k = 0.0000 0.1540 0.0000 ( 11423 PWs)   bands (ev):

   -29.3545 -29.3465 -29.2793 -29.2745 -29.2357 -29.1738 -29.1703 -29.1352
   -29.0969 -29.0865 -11.9695  -7.1368  -2.0889  -1.3961  -1.0572   1.3094
     2.4175   2.4917   3.7816   3.9031

     occupation numbers 
     1.0000   1.0000   1.0000   1.0000   1.0000   1.0000   1.0000   1.0000
     1.0000   1.0000   1.0000   1.0000   1.0000   1.0000   1.0000   0.0000
     0.0000   0.0000   0.0000   0.0000

          k = 0.0000 0.2310 0.0000 ( 11413 PWs)   bands (ev):

   -29.3530 -29.3354 -29.2782 -29.2676 -29.2317 -29.1787 -29.1713 -29.1381
   -29.1095 -29.0870 -11.7290  -7.1711  -2.9300  -1.3987  -1.3460   0.8694
     2.7191   2.8066   3.9805   4.1569

     occupation numbers 
     1.0000   1.0000   1.0000   1.0000   1.0000   1.0000   1.0000   1.0000
     1.0000   1.0000   1.0000   1.0000   1.0000   1.0000   1.0000   0.0000
     0.0000   0.0000   0.0000   0.0000

          k = 0.0000 0.3080 0.0000 ( 11404 PWs)   bands (ev):

   -29.3512 -29.3212 -29.2766 -29.2586 -29.2261 -29.1854 -29.1734 -29.1426
   -29.1248 -29.0878 -11.4015  -7.3235  -3.5484  -1.7206  -1.4017   0.5602
     2.7080   2.8430   4.2464   4.4326

     occupation numbers 
     1.0000   1.0000   1.0000   1.0000   1.0000   1.0000   1.0000   1.0000
     1.0000   1.0000   1.0000   1.0000   1.0000   1.0000   1.0000   0.0000
     0.0000   0.0000   0.0000   0.0000

          k = 0.0000 0.3850 0.0000 ( 11354 PWs)   bands (ev):

   -29.3496 -29.3064 -29.2731 -29.2482 -29.2195 -29.1936 -29.1773 -29.1526
   -29.1364 -29.0885 -11.0023  -7.6523  -3.8562  -1.9838  -1.6445   0.5153
     2.3331   2.8720   4.6039   4.7196

     occupation numbers 
     1.0000   1.0000   1.0000   1.0000   1.0000   1.0000   1.0000   1.0000
     1.0000   1.0000   1.0000   1.0000   1.0000   1.0000   1.0000   0.0000
     0.0000   0.0000   0.0000   0.0000

          k = 0.0000 0.4620 0.0000 ( 11352 PWs)   bands (ev):

   -29.3482 -29.2957 -29.2645 -29.2369 -29.2140 -29.2032 -29.1830 -29.1677
   -29.1408 -29.0890 -10.5695  -8.1068  -3.8906  -2.1678  -1.9947   0.6792
     1.9473   2.8557   4.4943   5.2483

     occupation numbers 
     1.0000   1.0000   1.0000   1.0000   1.0000   1.0000   1.0000   1.0000
     1.0000   1.0000   1.0000   1.0000   1.0000   1.0000   1.0000   0.0000
     0.0000   0.0000   0.0000   0.0000

          k = 0.0000 0.5390 0.0000 ( 11328 PWs)   bands (ev):

   -29.3475 -29.2916 -29.2529 -29.2253 -29.2139 -29.2139 -29.1860 -29.1792
   -29.1424 -29.0894 -10.2201  -8.4940  -3.8116  -2.2652  -2.2621   0.8868
     1.6644   2.8370   4.3133   5.8761

     occupation numbers 
     1.0000   1.0000   1.0000   1.0000   1.0000   1.0000   1.0000   1.0000
     1.0000   1.0000   1.0000   1.0000   1.0000   1.0000   1.0000   0.0000
     0.0000   0.0000   0.0000   0.0000

          k = 0.0667 0.1155 0.0000 ( 11417 PWs)   bands (ev):

   -29.3548 -29.3487 -29.2794 -29.2761 -29.2364 -29.1728 -29.1700 -29.1346
   -29.0942 -29.0863 -12.0182  -7.1372  -1.8174  -1.4146  -1.0279   1.7579
     1.7943   2.5732   3.7397   3.8322

     occupation numbers 
     1.0000   1.0000   1.0000   1.0000   1.0000   1.0000   1.0000   1.0000
     1.0000   1.0000   1.0000   1.0000   1.0000   1.0000   1.0000   0.0000
     0.0000   0.0000   0.0000   0.0000

          k = 0.0667 0.1925 0.0000 ( 11438 PWs)   bands (ev):

   -29.3536 -29.3397 -29.2783 -29.2708 -29.2332 -29.1770 -29.1705 -29.1369
   -29.1046 -29.0869 -11.8246  -7.1489  -2.5953  -1.4586  -1.3295   1.3516
     2.2066   2.9250   3.9277   4.0669

     occupation numbers 
     1.0000   1.0000   1.0000   1.0000   1.0000   1.0000   1.0000   1.0000
     1.0000   1.0000   1.0000   1.0000   1.0000   1.0000   1.0000   0.0000
     0.0000   0.0000   0.0000   0.0000

          k = 0.0667 0.2695 0.0000 ( 11398 PWs)   bands (ev):

   -29.3520 -29.3269 -29.2768 -29.2633 -29.2282 -29.1831 -29.1717 -29.1405
   -29.1187 -29.0876 -11.5400  -7.2400  -3.2756  -1.8447  -1.3236   0.9552
     2.5129   2.9602   4.1485   4.3214

     occupation numbers 
     1.0000   1.0000   1.0000   1.0000   1.0000   1.0000   1.0000   1.0000
     1.0000   1.0000   1.0000   1.0000   1.0000   1.0000   1.0000   0.0000
     0.0000   0.0000   0.0000   0.0000

          k = 0.0667 0.3465 0.0000 ( 11362 PWs)   bands (ev):

   -29.3503 -29.3119 -29.2745 -29.2540 -29.2217 -29.1909 -29.1742 -29.1473
   -29.1329 -29.0884 -11.1746  -7.4835  -3.7131  -2.1716  -1.4467   0.7525
     2.6395   2.6471   4.4785   4.6411

     occupation numbers 
     1.0000   1.0000   1.0000   1.0000   1.0000   1.0000   1.0000   1.0000
     1.0000   1.0000   1.0000   1.0000   1.0000   1.0000   1.0000   0.0000
     0.0000   0.0000   0.0000   0.0000

          k = 0.0667 0.4235 0.0000 ( 11362 PWs)   bands (ev):

   -29.3488 -29.2983 -29.2689 -29.2436 -29.2150 -29.2002 -29.1786 -29.1612
   -29.1402 -29.0891 -10.7514  -7.8896  -3.8691  -2.3972  -1.7399   0.8041
     2.2152   2.6843   4.6737   5.0194

     occupation numbers 
     1.0000   1.0000   1.0000   1.0000   1.0000   1.0000   1.0000   1.0000
     1.0000   1.0000   1.0000   1.0000   1.0000   1.0000   1.0000   0.0000
     0.0000   0.0000   0.0000   0.0000

          k = 0.0667 0.5005 0.0000 ( 11355 PWs)   bands (ev):

   -29.3478 -29.2910 -29.2577 -29.2326 -29.2133 -29.2085 -29.1840 -29.1750
   -29.1429 -29.0896 -10.3349  -8.3419  -3.8417  -2.4922  -2.0911   1.0279
     1.8177   2.6992   4.4633   5.6162

     occupation numbers 
     1.0000   1.0000   1.0000   1.0000   1.0000   1.0000   1.0000   1.0000
     1.0000   1.0000   1.0000   1.0000   1.0000   1.0000   1.0000   0.0000
     0.0000   0.0000   0.0000   0.0000

          k = 0.0667 0.5775 0.0000 ( 11322 PWs)   bands (ev):

   -29.3474 -29.2892 -29.2496 -29.2232 -29.2215 -29.2111 -29.1837 -29.1826
   -29.1436 -29.0898 -10.1239  -8.5737  -3.8005  -2.4649  -2.3003   1.2297
     1.5702   2.7064   4.3498   6.2318

     occupation numbers 
     1.0000   1.0000   1.0000   1.0000   1.0000   1.0000   1.0000   1.0000
     1.0000   1.0000   1.0000   1.0000   1.0000   1.0000   1.0000   0.0000
     0.0000   0.0000   0.0000   0.0000

          k = 0.1334 0.2310 0.0000 ( 11375 PWs)   bands (ev):

   -29.3523 -29.3288 -29.2763 -29.2656 -29.2288 -29.1826 -29.1708 -29.1400
   -29.1165 -29.0876 -11.5865  -7.2149  -3.0999  -2.0253  -1.3060   1.4570
     2.0809   3.0992   4.1710   4.2632

     occupation numbers 
     1.0000   1.0000   1.0000   1.0000   1.0000   1.0000   1.0000   1.0000
     1.0000   1.0000   1.0000   1.0000   1.0000   1.0000   1.0000   0.0000
     0.0000   0.0000   0.0000   0.0000

          k = 0.1334 0.3080 0.0000 ( 11359 PWs)   bands (ev):

   -29.3508 -29.3146 -29.2739 -29.2587 -29.2225 -29.1903 -29.1717 -29.1451
   -29.1305 -29.0886 -11.2621  -7.3968  -3.4967  -2.5266  -1.3516   1.2849
     2.1678   3.0300   4.4429   4.5753

     occupation numbers 
     1.0000   1.0000   1.0000   1.0000   1.0000   1.0000   1.0000   1.0000
     1.0000   1.0000   1.0000   1.0000   1.0000   1.0000   1.0000   0.0000
     0.0000   0.0000   0.0000   0.0000

          k = 0.1334 0.3850 0.0000 ( 11350 PWs)   bands (ev):

   -29.3493 -29.2994 -29.2704 -29.2501 -29.2150 -29.1996 -29.1738 -29.1566
   -29.1405 -29.0895 -10.8657  -7.7330  -3.7247  -2.8466  -1.5499   1.1818
     2.1507   2.8192   4.7839   4.9570

     occupation numbers 
     1.0000   1.0000   1.0000   1.0000   1.0000   1.0000   1.0000   1.0000
     1.0000   1.0000   1.0000   1.0000   1.0000   1.0000   1.0000   0.0000
     0.0000   0.0000   0.0000   0.0000

          k = 0.1334 0.4620 0.0000 ( 11338 PWs)   bands (ev):

   -29.3482 -29.2880 -29.2623 -29.2403 -29.2119 -29.2069 -29.1784 -29.1715
   -29.1447 -29.0903 -10.4323  -8.1769  -3.8185  -2.9386  -1.8866   1.2399
     2.0416   2.6286   4.7866   5.4479

     occupation numbers 
     1.0000   1.0000   1.0000   1.0000   1.0000   1.0000   1.0000   1.0000
     1.0000   1.0000   1.0000   1.0000   1.0000   1.0000   1.0000   0.0000
     0.0000   0.0000   0.0000   0.0000

          k = 0.1334 0.5390 0.0000 ( 11357 PWs)   bands (ev):

   -29.3475 -29.2838 -29.2498 -29.2312 -29.2223 -29.2059 -29.1851 -29.1786
   -29.1465 -29.0908 -10.0731  -8.5617  -3.8555  -2.8341  -2.2243   1.3573
     1.9232   2.5344   4.5982   6.0954

     occupation numbers 
     1.0000   1.0000   1.0000   1.0000   1.0000   1.0000   1.0000   1.0000
     1.0000   1.0000   1.0000   1.0000   1.0000   1.0000   1.0000   0.0000
     0.0000   0.0000   0.0000   0.0000

          k = 0.2000 0.3465 0.0000 ( 11359 PWs)   bands (ev):

   -29.3496 -29.2997 -29.2703 -29.2531 -29.2150 -29.1996 -29.1717 -29.1550
   -29.1407 -29.0898 -10.9047  -7.6756  -3.5546  -3.1436  -1.4831   1.5462
     1.7571   3.1568   4.8131   4.9262

     occupation numbers 
     1.0000   1.0000   1.0000   1.0000   1.0000   1.0000   1.0000   1.0000
     1.0000   1.0000   1.0000   1.0000   1.0000   1.0000   1.0000   0.0000
     0.0000   0.0000   0.0000   0.0000

          k = 0.2000 0.4235 0.0000 ( 11359 PWs)   bands (ev):

   -29.3484 -29.2847 -29.2657 -29.2454 -29.2108 -29.2070 -29.1730 -29.1701
   -29.1466 -29.0909 -10.4868  -8.0690  -3.6900  -3.3500  -1.7447   1.3566
     1.8455   3.1124   5.1514   5.3911

     occupation numbers 
     1.0000   1.0000   1.0000   1.0000   1.0000   1.0000   1.0000   1.0000
     1.0000   1.0000   1.0000   1.0000   1.0000   1.0000   1.0000   0.0000
     0.0000   0.0000   0.0000   0.0000

          k = 0.2000 0.5005 0.0000 ( 11356 PWs)   bands (ev):

   -29.3476 -29.2761 -29.2553 -29.2361 -29.2228 -29.2018 -29.1863 -29.1733
   -29.1501 -29.0917 -10.0606  -8.5018  -3.9541  -3.1170  -2.0901   1.1290
     2.1663   2.8735   5.1166   5.9675

     occupation numbers 
     1.0000   1.0000   1.0000   1.0000   1.0000   1.0000   1.0000   1.0000
     1.0000   1.0000   1.0000   1.0000   1.0000   1.0000   1.0000   0.0000
     0.0000   0.0000   0.0000   0.0000

          k = 0.2000 0.5775 0.0000 ( 11348 PWs)   bands (ev):

   -29.3474 -29.2743 -29.2441 -29.2356 -29.2276 -29.2031 -29.1910 -29.1743
   -29.1514 -29.0920  -9.8253  -8.7439  -4.0466  -2.9298  -2.3137   1.0526
     2.5093   2.5534   5.0380   6.3520

     occupation numbers 
     1.0000   1.0000   1.0000   1.0000   1.0000   1.0000   1.0000   1.0000
     1.0000   1.0000   1.0000   1.0000   1.0000   1.0000   1.0000   0.0000
     0.0000   0.0000   0.0000   0.0000

          k = 0.2667 0.4620 0.0000 ( 11374 PWs)   bands (ev):

   -29.3477 -29.2700 -29.2613 -29.2374 -29.2230 -29.2002 -29.1866 -29.1708
   -29.1521 -29.0921 -10.0606  -8.4695  -4.0070  -3.2128  -2.0235   1.0202
     2.1472   3.1766   5.7320   5.8763

     occupation numbers 
     1.0000   1.0000   1.0000   1.0000   1.0000   1.0000   1.0000   1.0000
     1.0000   1.0000   1.0000   1.0000   1.0000   1.0000   1.0000   0.0000
     0.0000   0.0000   0.0000   0.0000

          k = 0.2667 0.5390 0.0000 ( 11377 PWs)   bands (ev):

   -29.3473 -29.2633 -29.2511 -29.2366 -29.2268 -29.2019 -29.1954 -29.1689
   -29.1563 -29.0929  -9.6581  -8.8608  -4.2308  -2.9116  -2.3339   0.7945
     2.5262   2.9721   5.8390   6.0457

     occupation numbers 
     1.0000   1.0000   1.0000   1.0000   1.0000   1.0000   1.0000   1.0000
     1.0000   1.0000   1.0000   1.0000   1.0000   1.0000   1.0000   0.0000
     0.0000   0.0000   0.0000   0.0000

          k = 0.3334 0.5775 0.0000 ( 11406 PWs)   bands (ev):

   -29.3472 -29.2505 -29.2497 -29.2496 -29.2146 -29.2146 -29.1949 -29.1629
   -29.1629 -29.0933  -9.2505  -9.2505  -4.3463  -2.6165  -2.6165   0.6578
     2.8281   2.8281   5.8674   6.7091

     occupation numbers 
     1.0000   1.0000   1.0000   1.0000   1.0000   1.0000   1.0000   1.0000
     1.0000   1.0000   1.0000   1.0000   1.0000   1.0000   1.0000   0.0000
     0.0000   0.0000   0.0000   0.0000

     highest occupied, lowest unoccupied level (ev):    -0.6518    0.5153

!    total energy              =    -369.92724472 Ry
     estimated scf accuracy    <       0.00000037 Ry

     The total energy is the sum of the following terms:
     one-electron contribution =    -802.57496032 Ry
     hartree contribution      =     406.82821477 Ry
     xc contribution           =     -88.03270807 Ry
     ewald contribution        =     113.88714343 Ry
     DFT-D3 Dispersion         =      -0.03493453 Ry

     convergence has been achieved in   7 iterations

     negative rho (up, down):  3.013E-06 0.000E+00

     Forces acting on atoms (cartesian axes, Ry/au):

     atom    1 type  1   force =     0.00000000    0.00000000    0.00089469
     atom    2 type  1   force =     0.00000000    0.00000000   -0.00089469
     The non-local contrib.  to forces
     atom    1 type  1   force =     0.00000000    0.00000000    0.51503341
     atom    2 type  1   force =     0.00000000    0.00000000   -0.51499197
     The ionic contribution  to forces
     atom    1 type  1   force =    -0.00000001    0.00000001  -35.91516696
     atom    2 type  1   force =     0.00000001   -0.00000001   35.91516696
     The local contribution  to forces
     atom    1 type  1   force =    -0.00000000   -0.00000000   35.39667653
     atom    2 type  1   force =     0.00000040   -0.00000023  -35.39682701
     The core correction contribution to forces
     atom    1 type  1   force =    -0.00000000    0.00000000    0.00074598
     atom    2 type  1   force =     0.00000004   -0.00000002   -0.00075529
     The Hubbard contrib.    to forces
     atom    1 type  1   force =     0.00000000    0.00000000    0.00000000
     atom    2 type  1   force =     0.00000000    0.00000000    0.00000000
     The SCF correction term to forces
     atom    1 type  1   force =    -0.00000000    0.00000000    0.00000000
     atom    2 type  1   force =     0.00000000   -0.00000000   -0.00217959

     DFT-D3 dispersion contribution to forces:
     atom    1 type  1   force =     0.00000000   -0.00000000    0.00125910
     atom    2 type  1   force =    -0.00000000    0.00000000   -0.00125910

     Total force =     0.000895     Total SCF correction =     0.002180

     DFT-D3 dispersion Force =     0.001781
     SCF correction compared to forces is large: reduce conv_thr to get better values


     Computing stress (Cartesian axis) and pressure


     negative rho (up, down):  3.013E-06 0.000E+00
          total   stress  (Ry/bohr**3)                   (kbar)     P=       -1.53
  -0.00000953  -0.00000000   0.00000000           -1.40       -0.00        0.00
   0.00000000  -0.00000953   0.00000000            0.00       -1.40        0.00
   0.00000000   0.00000000  -0.00001213            0.00        0.00       -1.78

     kinetic stress (kbar)   4817.47     -0.00      0.00
                               -0.00   4817.47      0.00
                                0.00     -0.00   4840.24

     local   stress (kbar) -63013.01      0.00     -0.00
                                0.00 -63013.01      0.00
                               -0.00      0.00  63691.84

     nonloc. stress (kbar)     27.44      0.00      0.00
                                0.00     27.44      0.00
                                0.00      0.00     46.12

     hartree stress (kbar)  34214.40     -0.00     -0.00
                               -0.00  34214.40     -0.00
                               -0.00     -0.00 -27114.14

     exc-cor stress (kbar)   2960.85     -0.00      0.00
                               -0.00   2960.85     -0.00
                                0.00     -0.00   2959.58

     corecor stress (kbar)  -4666.53     -0.00      0.00
                               -0.00  -4666.53     -0.00
                                0.00     -0.00  -4667.00

     ewald   stress (kbar)  25661.78     -0.00      0.00
                               -0.00  25661.78     -0.00
                                0.00     -0.00 -39757.97

     hubbard stress (kbar)      0.00      0.00      0.00
                                0.00      0.00      0.00
                                0.00      0.00      0.00

     DFT-D   stress (kbar)     -3.80     -0.00     -0.00
                               -0.00     -3.80      0.00
                               -0.00      0.00     -0.46

     XDM     stress (kbar)      0.00      0.00      0.00
                                0.00      0.00      0.00
                                0.00      0.00      0.00

     dft-nl  stress (kbar)      0.00      0.00      0.00
                                0.00      0.00      0.00
                                0.00      0.00      0.00

     TS-vdW  stress (kbar)      0.00      0.00      0.00
                                0.00      0.00      0.00
                                0.00      0.00      0.00


     Energy error            =      1.4E-06
     Gradient error          =      8.9E-04
     Cell gradient error     =      9.5E-06


     number of scf cycles    =   2
     number of bfgs steps    =   1

     enthalpy old            =    -369.9272461320 Ry
     enthalpy new            =    -369.9272447224 Ry

     CASE: enthalpy_new > enthalpy_old

     new trust radius        =       0.0005155489 bohr
     new conv_thr            =       0.0000010000 Ry

     new unit-cell volume =   1448.87304 a.u.^3 (   214.70083 Ang^3 )
     density =      0.18579 g/cm^3

CELL_PARAMETERS (alat=  7.68305950)
   0.999932283   0.000000000   0.000000000
  -0.499966142   0.865966759   0.000000000
   0.000000000   0.000000000   3.689401579

ATOMIC_POSITIONS (crystal)
Sb            0.0000000000        0.0000000000        0.5000000000    0   0   0
Sb            0.3333333330        0.6666666670        0.6102120976



     Writing output data file ./tmp/Sb.save/
     NEW-OLD atomic charge density approx. for the potential

     negative rho (up, down):  2.470E-06 0.000E+00
     extrapolated charge   30.00618, renormalised to   30.00000

     total cpu time spent up to now is       47.8 secs

     Self-consistent Calculation

     iteration #  1     ecut=    60.00 Ry     beta= 0.70
     Davidson diagonalization with overlap
     ethr =  1.00E-06,  avg # of iterations =  2.0

     Threshold (ethr) on eigenvalues was too large:
     Diagonalizing with lowered threshold

     Davidson diagonalization with overlap
     ethr =  4.45E-08,  avg # of iterations =  1.0

     negative rho (up, down):  2.406E-06 0.000E+00

     total cpu time spent up to now is       52.2 secs

     total energy              =    -369.92722230 Ry
     estimated scf accuracy    <       0.00001341 Ry

     iteration #  2     ecut=    60.00 Ry     beta= 0.70
     Davidson diagonalization with overlap
     ethr =  4.47E-08,  avg # of iterations =  3.4

     negative rho (up, down):  2.711E-06 0.000E+00

     total cpu time spent up to now is       55.2 secs

     total energy              =    -369.92724586 Ry
     estimated scf accuracy    <       0.00003974 Ry

     iteration #  3     ecut=    60.00 Ry     beta= 0.70
     Davidson diagonalization with overlap
     ethr =  4.47E-08,  avg # of iterations =  2.0

     negative rho (up, down):  2.812E-06 0.000E+00

     total cpu time spent up to now is       57.5 secs

     total energy              =    -369.92724814 Ry
     estimated scf accuracy    <       0.00000891 Ry

     iteration #  4     ecut=    60.00 Ry     beta= 0.70
     Davidson diagonalization with overlap
     ethr =  2.97E-08,  avg # of iterations =  1.0

     negative rho (up, down):  2.870E-06 0.000E+00

     total cpu time spent up to now is       59.6 secs

     total energy              =    -369.92724698 Ry
     estimated scf accuracy    <       0.00000540 Ry

     iteration #  5     ecut=    60.00 Ry     beta= 0.70
     Davidson diagonalization with overlap
     ethr =  1.80E-08,  avg # of iterations =  1.1

     negative rho (up, down):  2.885E-06 0.000E+00

     total cpu time spent up to now is       61.6 secs

     total energy              =    -369.92724697 Ry
     estimated scf accuracy    <       0.00000214 Ry

     iteration #  6     ecut=    60.00 Ry     beta= 0.70
     Davidson diagonalization with overlap
     ethr =  7.14E-09,  avg # of iterations =  1.0

     negative rho (up, down):  2.920E-06 0.000E+00

     total cpu time spent up to now is       63.7 secs

     total energy              =    -369.92724648 Ry
     estimated scf accuracy    <       0.00000168 Ry

     iteration #  7     ecut=    60.00 Ry     beta= 0.70
     Davidson diagonalization with overlap
     ethr =  5.61E-09,  avg # of iterations =  1.4

     negative rho (up, down):  2.961E-06 0.000E+00

     total cpu time spent up to now is       65.8 secs

     End of self-consistent calculation

          k = 0.0000 0.0000 0.0000 ( 11385 PWs)   bands (ev):

   -29.3677 -29.3677 -29.2924 -29.2924 -29.2504 -29.1817 -29.1817 -29.1447
   -29.0979 -29.0979 -12.1733  -7.1585  -1.4842  -0.6619  -0.6619   1.0007
     2.1239   2.1239   3.5769   3.6137

     occupation numbers 
     1.0000   1.0000   1.0000   1.0000   1.0000   1.0000   1.0000   1.0000
     1.0000   1.0000   1.0000   1.0000   1.0000   1.0000   1.0000   0.0000
     0.0000   0.0000   0.0000   0.0000

          k = 0.0000 0.0770 0.0000 ( 11403 PWs)   bands (ev):

   -29.3674 -29.3654 -29.2921 -29.2909 -29.2497 -29.1828 -29.1818 -29.1453
   -29.1007 -29.0981 -12.1242  -7.1513  -1.4603  -1.1943  -0.7804   1.3941
     2.0251   2.2359   3.6336   3.6869

     occupation numbers 
     1.0000   1.0000   1.0000   1.0000   1.0000   1.0000   1.0000   1.0000
     1.0000   1.0000   1.0000   1.0000   1.0000   1.0000   1.0000   0.0000
     0.0000   0.0000   0.0000   0.0000

          k = 0.0000 0.1540 0.0000 ( 11423 PWs)   bands (ev):

   -29.3664 -29.3584 -29.2913 -29.2865 -29.2475 -29.1858 -29.1823 -29.1471
   -29.1088 -29.0984 -11.9778  -7.1430  -2.0982  -1.4004  -1.0671   1.3008
     2.4090   2.4829   3.7815   3.9008

     occupation numbers 
     1.0000   1.0000   1.0000   1.0000   1.0000   1.0000   1.0000   1.0000
     1.0000   1.0000   1.0000   1.0000   1.0000   1.0000   1.0000   0.0000
     0.0000   0.0000   0.0000   0.0000

          k = 0.0000 0.2310 0.0000 ( 11413 PWs)   bands (ev):

   -29.3649 -29.3474 -29.2902 -29.2796 -29.2435 -29.1907 -29.1833 -29.1499
   -29.1215 -29.0990 -11.7373  -7.1779  -2.9384  -1.4085  -1.3506   0.8616
     2.7107   2.7992   3.9794   4.1554

     occupation numbers 
     1.0000   1.0000   1.0000   1.0000   1.0000   1.0000   1.0000   1.0000
     1.0000   1.0000   1.0000   1.0000   1.0000   1.0000   1.0000   0.0000
     0.0000   0.0000   0.0000   0.0000

          k = 0.0000 0.3079 0.0000 ( 11404 PWs)   bands (ev):

   -29.3632 -29.3332 -29.2886 -29.2707 -29.2379 -29.1974 -29.1854 -29.1545
   -29.1367 -29.0997 -11.4099  -7.3310  -3.5559  -1.7302  -1.4070   0.5532
     2.7009   2.8351   4.2450   4.4319

     occupation numbers 
     1.0000   1.0000   1.0000   1.0000   1.0000   1.0000   1.0000   1.0000
     1.0000   1.0000   1.0000   1.0000   1.0000   1.0000   1.0000   0.0000
     0.0000   0.0000   0.0000   0.0000

          k = 0.0000 0.3849 0.0000 ( 11354 PWs)   bands (ev):

   -29.3615 -29.3184 -29.2851 -29.2602 -29.2314 -29.2057 -29.1893 -29.1645
   -29.1482 -29.1004 -11.0108  -7.6605  -3.8629  -1.9933  -1.6502   0.5087
     2.3265   2.8645   4.6013   4.7185

     occupation numbers 
     1.0000   1.0000   1.0000   1.0000   1.0000   1.0000   1.0000   1.0000
     1.0000   1.0000   1.0000   1.0000   1.0000   1.0000   1.0000   0.0000
     0.0000   0.0000   0.0000   0.0000

          k = 0.0000 0.4619 0.0000 ( 11352 PWs)   bands (ev):

   -29.3602 -29.3077 -29.2764 -29.2489 -29.2259 -29.2153 -29.1949 -29.1797
   -29.1527 -29.1010 -10.5782  -8.1154  -3.8968  -2.1772  -2.0005   0.6723
     1.9413   2.8485   4.4905   5.2470

     occupation numbers 
     1.0000   1.0000   1.0000   1.0000   1.0000   1.0000   1.0000   1.0000
     1.0000   1.0000   1.0000   1.0000   1.0000   1.0000   1.0000   0.0000
     0.0000   0.0000   0.0000   0.0000

          k = 0.0000 0.5389 0.0000 ( 11328 PWs)   bands (ev):

   -29.3594 -29.3036 -29.2648 -29.2373 -29.2260 -29.2259 -29.1978 -29.1911
   -29.1542 -29.1013 -10.2289  -8.5026  -3.8178  -2.2715  -2.2708   0.8789
     1.6595   2.8299   4.3094   5.8743

     occupation numbers 
     1.0000   1.0000   1.0000   1.0000   1.0000   1.0000   1.0000   1.0000
     1.0000   1.0000   1.0000   1.0000   1.0000   1.0000   1.0000   0.0000
     0.0000   0.0000   0.0000   0.0000

          k = 0.0667 0.1155 0.0000 ( 11417 PWs)   bands (ev):

   -29.3667 -29.3607 -29.2914 -29.2881 -29.2482 -29.1849 -29.1820 -29.1465
   -29.1062 -29.0983 -12.0264  -7.1434  -1.8269  -1.4188  -1.0378   1.7484
     1.7859   2.5646   3.7398   3.8299

     occupation numbers 
     1.0000   1.0000   1.0000   1.0000   1.0000   1.0000   1.0000   1.0000
     1.0000   1.0000   1.0000   1.0000   1.0000   1.0000   1.0000   0.0000
     0.0000   0.0000   0.0000   0.0000

          k = 0.0667 0.1925 0.0000 ( 11438 PWs)   bands (ev):

   -29.3655 -29.3516 -29.2903 -29.2828 -29.2451 -29.1890 -29.1825 -29.1488
   -29.1165 -29.0989 -11.8328  -7.1554  -2.6042  -1.4673  -1.3349   1.3434
     2.1979   2.9173   3.9272   4.0644

     occupation numbers 
     1.0000   1.0000   1.0000   1.0000   1.0000   1.0000   1.0000   1.0000
     1.0000   1.0000   1.0000   1.0000   1.0000   1.0000   1.0000   0.0000
     0.0000   0.0000   0.0000   0.0000

          k = 0.0667 0.2694 0.0000 ( 11398 PWs)   bands (ev):

   -29.3640 -29.3389 -29.2888 -29.2753 -29.2401 -29.1951 -29.1837 -29.1524
   -29.1307 -29.0996 -11.5483  -7.2472  -3.2835  -1.8540  -1.3287   0.9478
     2.5049   2.9528   4.1471   4.3203

     occupation numbers 
     1.0000   1.0000   1.0000   1.0000   1.0000   1.0000   1.0000   1.0000
     1.0000   1.0000   1.0000   1.0000   1.0000   1.0000   1.0000   0.0000
     0.0000   0.0000   0.0000   0.0000

          k = 0.0667 0.3464 0.0000 ( 11362 PWs)   bands (ev):

   -29.3623 -29.3239 -29.2864 -29.2661 -29.2336 -29.2029 -29.1862 -29.1592
   -29.1448 -29.1004 -11.1830  -7.4915  -3.7201  -2.1807  -1.4524   0.7458
     2.6322   2.6398   4.4767   4.6400

     occupation numbers 
     1.0000   1.0000   1.0000   1.0000   1.0000   1.0000   1.0000   1.0000
     1.0000   1.0000   1.0000   1.0000   1.0000   1.0000   1.0000   0.0000
     0.0000   0.0000   0.0000   0.0000

          k = 0.0667 0.4234 0.0000 ( 11362 PWs)   bands (ev):

   -29.3608 -29.3103 -29.2809 -29.2556 -29.2269 -29.2122 -29.1905 -29.1731
   -29.1521 -29.1011 -10.7601  -7.8980  -3.8756  -2.4060  -1.7460   0.7976
     2.2084   2.6773   4.6698   5.0182

     occupation numbers 
     1.0000   1.0000   1.0000   1.0000   1.0000   1.0000   1.0000   1.0000
     1.0000   1.0000   1.0000   1.0000   1.0000   1.0000   1.0000   0.0000
     0.0000   0.0000   0.0000   0.0000

          k = 0.0667 0.5004 0.0000 ( 11355 PWs)   bands (ev):

   -29.3597 -29.3030 -29.2696 -29.2446 -29.2253 -29.2205 -29.1959 -29.1869
   -29.1547 -29.1016 -10.3437  -8.3506  -3.8480  -2.5007  -2.0973   1.0209
     1.8116   2.6925   4.4592   5.6148

     occupation numbers 
     1.0000   1.0000   1.0000   1.0000   1.0000   1.0000   1.0000   1.0000
     1.0000   1.0000   1.0000   1.0000   1.0000   1.0000   1.0000   0.0000
     0.0000   0.0000   0.0000   0.0000

          k = 0.0667 0.5774 0.0000 ( 11322 PWs)   bands (ev):

   -29.3594 -29.3012 -29.2615 -29.2353 -29.2335 -29.2231 -29.1955 -29.1945
   -29.1555 -29.1018 -10.1328  -8.5824  -3.8069  -2.4739  -2.3059   1.2214
     1.5656   2.6998   4.3457   6.2295

     occupation numbers 
     1.0000   1.0000   1.0000   1.0000   1.0000   1.0000   1.0000   1.0000
     1.0000   1.0000   1.0000   1.0000   1.0000   1.0000   1.0000   0.0000
     0.0000   0.0000   0.0000   0.0000

          k = 0.1333 0.2310 0.0000 ( 11375 PWs)   bands (ev):

   -29.3643 -29.3407 -29.2883 -29.2776 -29.2406 -29.1946 -29.1828 -29.1518
   -29.1285 -29.0996 -11.5948  -7.2220  -3.1081  -2.0344  -1.3110   1.4498
     2.0724   3.0919   4.1701   4.2608

     occupation numbers 
     1.0000   1.0000   1.0000   1.0000   1.0000   1.0000   1.0000   1.0000
     1.0000   1.0000   1.0000   1.0000   1.0000   1.0000   1.0000   0.0000
     0.0000   0.0000   0.0000   0.0000

          k = 0.1333 0.3079 0.0000 ( 11359 PWs)   bands (ev):

   -29.3628 -29.3266 -29.2859 -29.2707 -29.2343 -29.2023 -29.1837 -29.1570
   -29.1425 -29.1006 -11.2706  -7.4046  -3.5040  -2.5355  -1.3570   1.2783
     2.1604   3.0221   4.4407   4.5738

     occupation numbers 
     1.0000   1.0000   1.0000   1.0000   1.0000   1.0000   1.0000   1.0000
     1.0000   1.0000   1.0000   1.0000   1.0000   1.0000   1.0000   0.0000
     0.0000   0.0000   0.0000   0.0000

          k = 0.1333 0.3849 0.0000 ( 11350 PWs)   bands (ev):

   -29.3613 -29.3114 -29.2824 -29.2621 -29.2270 -29.2116 -29.1857 -29.1686
   -29.1523 -29.1015 -10.8743  -7.7414  -3.7314  -2.8551  -1.5558   1.1758
     2.1442   2.8113   4.7803   4.9556

     occupation numbers 
     1.0000   1.0000   1.0000   1.0000   1.0000   1.0000   1.0000   1.0000
     1.0000   1.0000   1.0000   1.0000   1.0000   1.0000   1.0000   0.0000
     0.0000   0.0000   0.0000   0.0000

          k = 0.1333 0.4619 0.0000 ( 11338 PWs)   bands (ev):

   -29.3601 -29.3000 -29.2743 -29.2523 -29.2239 -29.2189 -29.1904 -29.1834
   -29.1566 -29.1023 -10.4410  -8.1856  -3.8252  -2.9466  -1.8926   1.2343
     2.0347   2.6216   4.7819   5.4466

     occupation numbers 
     1.0000   1.0000   1.0000   1.0000   1.0000   1.0000   1.0000   1.0000
     1.0000   1.0000   1.0000   1.0000   1.0000   1.0000   1.0000   0.0000
     0.0000   0.0000   0.0000   0.0000

          k = 0.1333 0.5389 0.0000 ( 11357 PWs)   bands (ev):

   -29.3595 -29.2958 -29.2617 -29.2432 -29.2343 -29.2179 -29.1971 -29.1904
   -29.1584 -29.1027 -10.0820  -8.5705  -3.8625  -2.8419  -2.2301   1.3521
     1.9152   2.5286   4.5935   6.0938

     occupation numbers 
     1.0000   1.0000   1.0000   1.0000   1.0000   1.0000   1.0000   1.0000
     1.0000   1.0000   1.0000   1.0000   1.0000   1.0000   1.0000   0.0000
     0.0000   0.0000   0.0000   0.0000

          k = 0.2000 0.3464 0.0000 ( 11359 PWs)   bands (ev):

   -29.3615 -29.3117 -29.2823 -29.2651 -29.2269 -29.2116 -29.1837 -29.1670
   -29.1526 -29.1017 -10.9132  -7.6840  -3.5614  -3.1521  -1.4889   1.5406
     1.7507   3.1485   4.8086   4.9247

     occupation numbers 
     1.0000   1.0000   1.0000   1.0000   1.0000   1.0000   1.0000   1.0000
     1.0000   1.0000   1.0000   1.0000   1.0000   1.0000   1.0000   0.0000
     0.0000   0.0000   0.0000   0.0000

          k = 0.2000 0.4234 0.0000 ( 11359 PWs)   bands (ev):

   -29.3604 -29.2967 -29.2777 -29.2573 -29.2228 -29.2189 -29.1849 -29.1821
   -29.1585 -29.1029 -10.4955  -8.0777  -3.6975  -3.3571  -1.7507   1.3509
     1.8401   3.1045   5.1456   5.3899

     occupation numbers 
     1.0000   1.0000   1.0000   1.0000   1.0000   1.0000   1.0000   1.0000
     1.0000   1.0000   1.0000   1.0000   1.0000   1.0000   1.0000   0.0000
     0.0000   0.0000   0.0000   0.0000

          k = 0.2000 0.5004 0.0000 ( 11356 PWs)   bands (ev):

   -29.3596 -29.2882 -29.2673 -29.2480 -29.2348 -29.2138 -29.1983 -29.1852
   -29.1620 -29.1037 -10.0695  -8.5107  -3.9619  -3.1237  -2.0961   1.1236
     2.1608   2.8663   5.1106   5.9659

     occupation numbers 
     1.0000   1.0000   1.0000   1.0000   1.0000   1.0000   1.0000   1.0000
     1.0000   1.0000   1.0000   1.0000   1.0000   1.0000   1.0000   0.0000
     0.0000   0.0000   0.0000   0.0000

          k = 0.2000 0.5774 0.0000 ( 11348 PWs)   bands (ev):

   -29.3593 -29.2864 -29.2560 -29.2476 -29.2396 -29.2152 -29.2030 -29.1861
   -29.1633 -29.1040  -9.8342  -8.7527  -4.0543  -2.9365  -2.3196   1.0473
     2.5042   2.5461   5.0319   6.3487

     occupation numbers 
     1.0000   1.0000   1.0000   1.0000   1.0000   1.0000   1.0000   1.0000
     1.0000   1.0000   1.0000   1.0000   1.0000   1.0000   1.0000   0.0000
     0.0000   0.0000   0.0000   0.0000

          k = 0.2667 0.4619 0.0000 ( 11374 PWs)   bands (ev):

   -29.3597 -29.2820 -29.2733 -29.2493 -29.2350 -29.2122 -29.1986 -29.1827
   -29.1640 -29.1041 -10.0694  -8.4784  -4.0151  -3.2190  -2.0296   1.0148
     2.1422   3.1696   5.7253   5.8742

     occupation numbers 
     1.0000   1.0000   1.0000   1.0000   1.0000   1.0000   1.0000   1.0000
     1.0000   1.0000   1.0000   1.0000   1.0000   1.0000   1.0000   0.0000
     0.0000   0.0000   0.0000   0.0000

          k = 0.2667 0.5389 0.0000 ( 11377 PWs)   bands (ev):

   -29.3593 -29.2753 -29.2631 -29.2486 -29.2387 -29.2138 -29.2074 -29.1808
   -29.1682 -29.1048  -9.6671  -8.8697  -4.2387  -2.9178  -2.3400   0.7893
     2.5211   2.9658   5.8328   6.0413

     occupation numbers 
     1.0000   1.0000   1.0000   1.0000   1.0000   1.0000   1.0000   1.0000
     1.0000   1.0000   1.0000   1.0000   1.0000   1.0000   1.0000   0.0000
     0.0000   0.0000   0.0000   0.0000

          k = 0.3334 0.5774 0.0000 ( 11406 PWs)   bands (ev):

   -29.3591 -29.2625 -29.2617 -29.2617 -29.2265 -29.2265 -29.2070 -29.1748
   -29.1747 -29.1053  -9.2595  -9.2594  -4.3542  -2.6226  -2.6226   0.6527
     2.8226   2.8226   5.8645   6.7025

     occupation numbers 
     1.0000   1.0000   1.0000   1.0000   1.0000   1.0000   1.0000   1.0000
     1.0000   1.0000   1.0000   1.0000   1.0000   1.0000   1.0000   0.0000
     0.0000   0.0000   0.0000   0.0000

     highest occupied, lowest unoccupied level (ev):    -0.6619    0.5087

!    total energy              =    -369.92724604 Ry
     estimated scf accuracy    <       0.00000059 Ry

     The total energy is the sum of the following terms:
     one-electron contribution =    -802.52185876 Ry
     hartree contribution      =     406.81232863 Ry
     xc contribution           =     -88.03424934 Ry
     ewald contribution        =     113.85146169 Ry
     DFT-D3 Dispersion         =      -0.03492826 Ry

     convergence has been achieved in   7 iterations

     negative rho (up, down):  2.961E-06 0.000E+00

     Forces acting on atoms (cartesian axes, Ry/au):

     atom    1 type  1   force =     0.00000000    0.00000000   -0.00133505
     atom    2 type  1   force =     0.00000000   -0.00000000    0.00133505
     The non-local contrib.  to forces
     atom    1 type  1   force =     0.00000000    0.00000000    0.51349413
     atom    2 type  1   force =     0.00000000    0.00000000   -0.51351246
     The ionic contribution  to forces
     atom    1 type  1   force =    -0.00000001    0.00000001  -35.90402915
     atom    2 type  1   force =     0.00000001   -0.00000001   35.90402915
     The local contribution  to forces
     atom    1 type  1   force =     0.00000000   -0.00000000   35.39010973
     atom    2 type  1   force =     0.00000040   -0.00000023  -35.39007066
     The core correction contribution to forces
     atom    1 type  1   force =    -0.00000000    0.00000000    0.00084645
     atom    2 type  1   force =     0.00000004   -0.00000002   -0.00084674
     The Hubbard contrib.    to forces
     atom    1 type  1   force =     0.00000000    0.00000000    0.00000000
     atom    2 type  1   force =     0.00000000    0.00000000    0.00000000
     The SCF correction term to forces
     atom    1 type  1   force =     0.00000000   -0.00000000   -0.00000000
     atom    2 type  1   force =    -0.00000000    0.00000000    0.00296742

     DFT-D3 dispersion contribution to forces:
     atom    1 type  1   force =     0.00000000   -0.00000000    0.00125842
     atom    2 type  1   force =    -0.00000000    0.00000000   -0.00125842

     Total force =     0.001335     Total SCF correction =     0.002967

     DFT-D3 dispersion Force =     0.001780
     SCF correction compared to forces is large: reduce conv_thr to get better values


     Computing stress (Cartesian axis) and pressure


     negative rho (up, down):  2.961E-06 0.000E+00
          total   stress  (Ry/bohr**3)                   (kbar)     P=        1.92
   0.00001299   0.00000000   0.00000000            1.91        0.00        0.00
   0.00000000   0.00001299   0.00000000            0.00        1.91        0.00
   0.00000000   0.00000000   0.00001317            0.00        0.00        1.94

     kinetic stress (kbar)   4816.47     -0.00      0.00
                               -0.00   4816.47      0.00
                                0.00      0.00   4839.39

     local   stress (kbar) -62992.08      0.00     -0.00
                                0.00 -62992.08      0.00
                               -0.00      0.00  63669.73

     nonloc. stress (kbar)     30.58     -0.00      0.00
                               -0.00     30.58     -0.00
                                0.00     -0.00     49.20

     hartree stress (kbar)  34204.30     -0.00      0.00
                               -0.00  34204.30     -0.00
                                0.00     -0.00 -27104.66

     exc-cor stress (kbar)   2960.18     -0.00      0.00
                               -0.00   2960.18     -0.00
                                0.00     -0.00   2958.91

     corecor stress (kbar)  -4665.52     -0.00      0.00
                               -0.00  -4665.52     -0.00
                                0.00     -0.00  -4665.99

     ewald   stress (kbar)  25651.80     -0.00      0.00
                               -0.00  25651.80     -0.00
                                0.00     -0.00 -39744.18

     hubbard stress (kbar)      0.00      0.00      0.00
                                0.00      0.00      0.00
                                0.00      0.00      0.00

     DFT-D   stress (kbar)     -3.80     -0.00     -0.00
                               -0.00     -3.80      0.00
                               -0.00      0.00     -0.46

     XDM     stress (kbar)      0.00      0.00      0.00
                                0.00      0.00      0.00
                                0.00      0.00      0.00

     dft-nl  stress (kbar)      0.00      0.00      0.00
                                0.00      0.00      0.00
                                0.00      0.00      0.00

     TS-vdW  stress (kbar)      0.00      0.00      0.00
                                0.00      0.00      0.00
                                0.00      0.00      0.00


     Energy error            =      9.7E-08
     Gradient error          =      1.3E-03
     Cell gradient error     =      1.3E-05


     number of scf cycles    =   3
     number of bfgs steps    =   1

     enthalpy old            =    -369.9272461320 Ry
     enthalpy new            =    -369.9272460353 Ry

     CASE: enthalpy_new > enthalpy_old

     new trust radius        =       0.0002439576 bohr
     new conv_thr            =       0.0000010000 Ry

     new unit-cell volume =   1448.97642 a.u.^3 (   214.71615 Ang^3 )
     density =      0.18578 g/cm^3

CELL_PARAMETERS (alat=  7.68305950)
   0.999967957   0.000000000   0.000000000
  -0.499983978   0.865997653   0.000000000
   0.000000000   0.000000000   3.689401579

ATOMIC_POSITIONS (crystal)
Sb            0.0000000000        0.0000000000        0.5000000000    0   0   0
Sb            0.3333333330        0.6666666670        0.6102057246



     Writing output data file ./tmp/Sb.save/
     NEW-OLD atomic charge density approx. for the potential

     negative rho (up, down):  2.539E-06 0.000E+00
     extrapolated charge   30.00200, renormalised to   30.00000

     total cpu time spent up to now is       71.7 secs

     Self-consistent Calculation

     iteration #  1     ecut=    60.00 Ry     beta= 0.70
     Davidson diagonalization with overlap
     ethr =  1.00E-06,  avg # of iterations =  2.1

     Threshold (ethr) on eigenvalues was too large:
     Diagonalizing with lowered threshold

     Davidson diagonalization with overlap
     ethr =  1.82E-08,  avg # of iterations =  1.0

     negative rho (up, down):  2.721E-06 0.000E+00

     total cpu time spent up to now is       76.1 secs

     total energy              =    -369.92724088 Ry
     estimated scf accuracy    <       0.00000561 Ry

     iteration #  2     ecut=    60.00 Ry     beta= 0.70
     Davidson diagonalization with overlap
     ethr =  1.87E-08,  avg # of iterations =  2.9

     negative rho (up, down):  2.855E-06 0.000E+00

     total cpu time spent up to now is       78.8 secs

     total energy              =    -369.92724569 Ry
     estimated scf accuracy    <       0.00000740 Ry

     iteration #  3     ecut=    60.00 Ry     beta= 0.70
     Davidson diagonalization with overlap
     ethr =  1.87E-08,  avg # of iterations =  2.0

     negative rho (up, down):  2.890E-06 0.000E+00

     total cpu time spent up to now is       81.4 secs

     total energy              =    -369.92724643 Ry
     estimated scf accuracy    <       0.00000106 Ry

     iteration #  4     ecut=    60.00 Ry     beta= 0.70
     Davidson diagonalization with overlap
     ethr =  3.53E-09,  avg # of iterations =  1.1

     negative rho (up, down):  2.944E-06 0.000E+00

     total cpu time spent up to now is       83.7 secs

     End of self-consistent calculation

          k = 0.0000 0.0000 0.0000 ( 11385 PWs)   bands (ev):

   -29.3672 -29.3672 -29.2919 -29.2919 -29.2500 -29.1812 -29.1812 -29.1442
   -29.0974 -29.0974 -12.1726  -7.1580  -1.4838  -0.6619  -0.6619   1.0005
     2.1239   2.1239   3.5766   3.6136

     occupation numbers 
     1.0000   1.0000   1.0000   1.0000   1.0000   1.0000   1.0000   1.0000
     1.0000   1.0000   1.0000   1.0000   1.0000   1.0000   1.0000   0.0000
     0.0000   0.0000   0.0000   0.0000

          k = 0.0000 0.0770 0.0000 ( 11403 PWs)   bands (ev):

   -29.3669 -29.3649 -29.2916 -29.2904 -29.2492 -29.1823 -29.1814 -29.1448
[...]
     1.0000   1.0000   1.0000   1.0000   1.0000   1.0000   1.0000   1.0000
     1.0000   1.0000   1.0000   1.0000   1.0000   1.0000   1.0000   0.0000
     0.0000   0.0000   0.0000   0.0000

          k = 0.0000 0.2309 0.0000 ( 11413 PWs)   bands (ev):

   -29.3598 -29.3422 -29.2851 -29.2745 -29.2385 -29.1857 -29.1782 -29.1450
   -29.1165 -29.0941 -11.7325  -7.1755  -2.9347  -1.4049  -1.3488   0.8641
     2.7127   2.8007   3.9790   4.1550

     occupation numbers 
     1.0000   1.0000   1.0000   1.0000   1.0000   1.0000   1.0000   1.0000
     1.0000   1.0000   1.0000   1.0000   1.0000   1.0000   1.0000   0.0000
     0.0000   0.0000   0.0000   0.0000

          k = 0.0000 0.3079 0.0000 ( 11404 PWs)   bands (ev):

   -29.3580 -29.3281 -29.2835 -29.2655 -29.2329 -29.1923 -29.1804 -29.1495
   -29.1317 -29.0948 -11.4052  -7.3283  -3.5522  -1.7265  -1.4051   0.5556
     2.7028   2.8369   4.2448   4.4311

     occupation numbers 
     1.0000   1.0000   1.0000   1.0000   1.0000   1.0000   1.0000   1.0000
     1.0000   1.0000   1.0000   1.0000   1.0000   1.0000   1.0000   0.0000
     0.0000   0.0000   0.0000   0.0000

          k = 0.0000 0.3849 0.0000 ( 11354 PWs)   bands (ev):

   -29.3564 -29.3132 -29.2800 -29.2551 -29.2263 -29.2006 -29.1842 -29.1595
   -29.1433 -29.0955 -11.0062  -7.6575  -3.8594  -1.9895  -1.6481   0.5110
     2.3285   2.8662   4.6014   4.7179

     occupation numbers 
     1.0000   1.0000   1.0000   1.0000   1.0000   1.0000   1.0000   1.0000
     1.0000   1.0000   1.0000   1.0000   1.0000   1.0000   1.0000   0.0000
     0.0000   0.0000   0.0000   0.0000

          k = 0.0000 0.4619 0.0000 ( 11352 PWs)   bands (ev):

   -29.3550 -29.3026 -29.2714 -29.2438 -29.2208 -29.2102 -29.1899 -29.1747
   -29.1477 -29.0960 -10.5737  -8.1119  -3.8937  -2.1734  -1.9983   0.6748
     1.9433   2.8502   4.4914   5.2465

     occupation numbers 
     1.0000   1.0000   1.0000   1.0000   1.0000   1.0000   1.0000   1.0000
     1.0000   1.0000   1.0000   1.0000   1.0000   1.0000   1.0000   0.0000
     0.0000   0.0000   0.0000   0.0000

          k = 0.0000 0.5389 0.0000 ( 11328 PWs)   bands (ev):

   -29.3543 -29.2985 -29.2597 -29.2322 -29.2209 -29.2208 -29.1928 -29.1861
   -29.1493 -29.0964 -10.2246  -8.4989  -3.8148  -2.2684  -2.2677   0.8816
     1.6611   2.8316   4.3106   5.8738

     occupation numbers 
     1.0000   1.0000   1.0000   1.0000   1.0000   1.0000   1.0000   1.0000
     1.0000   1.0000   1.0000   1.0000   1.0000   1.0000   1.0000   0.0000
     0.0000   0.0000   0.0000   0.0000

          k = 0.0667 0.1155 0.0000 ( 11417 PWs)   bands (ev):

   -29.3616 -29.3555 -29.2863 -29.2829 -29.2432 -29.1798 -29.1770 -29.1415
   -29.1012 -29.0934 -12.0215  -7.1410  -1.8233  -1.4171  -1.0343   1.7507
     1.7883   2.5666   3.7388   3.8300

     occupation numbers 
     1.0000   1.0000   1.0000   1.0000   1.0000   1.0000   1.0000   1.0000
     1.0000   1.0000   1.0000   1.0000   1.0000   1.0000   1.0000   0.0000
     0.0000   0.0000   0.0000   0.0000

          k = 0.0667 0.1924 0.0000 ( 11438 PWs)   bands (ev):

   -29.3604 -29.3465 -29.2851 -29.2777 -29.2400 -29.1840 -29.1775 -29.1438
   -29.1116 -29.0939 -11.8280  -7.1531  -2.6005  -1.4641  -1.3328   1.3458
     2.2001   2.9189   3.9265   4.0645

     occupation numbers 
     1.0000   1.0000   1.0000   1.0000   1.0000   1.0000   1.0000   1.0000
     1.0000   1.0000   1.0000   1.0000   1.0000   1.0000   1.0000   0.0000
     0.0000   0.0000   0.0000   0.0000

          k = 0.0667 0.2694 0.0000 ( 11398 PWs)   bands (ev):

   -29.3588 -29.3337 -29.2837 -29.2702 -29.2350 -29.1901 -29.1787 -29.1475
   -29.1257 -29.0946 -11.5436  -7.2447  -3.2798  -1.8504  -1.3268   0.9501
     2.5068   2.9545   4.1468   4.3197

     occupation numbers 
     1.0000   1.0000   1.0000   1.0000   1.0000   1.0000   1.0000   1.0000
     1.0000   1.0000   1.0000   1.0000   1.0000   1.0000   1.0000   0.0000
     0.0000   0.0000   0.0000   0.0000

          k = 0.0667 0.3464 0.0000 ( 11362 PWs)   bands (ev):

   -29.3571 -29.3187 -29.2813 -29.2609 -29.2285 -29.1979 -29.1811 -29.1542
   -29.1398 -29.0954 -11.1784  -7.4886  -3.7165  -2.1770  -1.4504   0.7481
     2.6342   2.6417   4.4766   4.6393

     occupation numbers 
     1.0000   1.0000   1.0000   1.0000   1.0000   1.0000   1.0000   1.0000
     1.0000   1.0000   1.0000   1.0000   1.0000   1.0000   1.0000   0.0000
     0.0000   0.0000   0.0000   0.0000

          k = 0.0667 0.4234 0.0000 ( 11364 PWs)   bands (ev):

   -29.3556 -29.3051 -29.2758 -29.2505 -29.2219 -29.2071 -29.1855 -29.1681
   -29.1471 -29.0961 -10.7555  -7.8948  -3.8723  -2.4023  -1.7438   0.7998
     2.2105   2.6791   4.6705   5.0177

     occupation numbers 
     1.0000   1.0000   1.0000   1.0000   1.0000   1.0000   1.0000   1.0000
     1.0000   1.0000   1.0000   1.0000   1.0000   1.0000   1.0000   0.0000
     0.0000   0.0000   0.0000   0.0000

          k = 0.0667 0.5004 0.0000 ( 11355 PWs)   bands (ev):

   -29.3546 -29.2978 -29.2645 -29.2395 -29.2202 -29.2154 -29.1909 -29.1819
   -29.1498 -29.0966 -10.3393  -8.3470  -3.8449  -2.4971  -2.0948   1.0233
     1.8135   2.6942   4.4604   5.6142

     occupation numbers 
     1.0000   1.0000   1.0000   1.0000   1.0000   1.0000   1.0000   1.0000
     1.0000   1.0000   1.0000   1.0000   1.0000   1.0000   1.0000   0.0000
     0.0000   0.0000   0.0000   0.0000

          k = 0.0667 0.5773 0.0000 ( 11322 PWs)   bands (ev):

   -29.3542 -29.2961 -29.2564 -29.2302 -29.2284 -29.2180 -29.1905 -29.1895
   -29.1505 -29.0968 -10.1285  -8.5786  -3.8039  -2.4701  -2.3035   1.2241
     1.5671   2.7014   4.3469   6.2287

     occupation numbers 
     1.0000   1.0000   1.0000   1.0000   1.0000   1.0000   1.0000   1.0000
     1.0000   1.0000   1.0000   1.0000   1.0000   1.0000   1.0000   0.0000
     0.0000   0.0000   0.0000   0.0000

          k = 0.1333 0.2309 0.0000 ( 11375 PWs)   bands (ev):

   -29.3591 -29.3356 -29.2832 -29.2724 -29.2356 -29.1896 -29.1778 -29.1469
   -29.1235 -29.0946 -11.5900  -7.2196  -3.1044  -2.0307  -1.3091   1.4519
     2.0746   3.0934   4.1695   4.2609

     occupation numbers 
     1.0000   1.0000   1.0000   1.0000   1.0000   1.0000   1.0000   1.0000
     1.0000   1.0000   1.0000   1.0000   1.0000   1.0000   1.0000   0.0000
     0.0000   0.0000   0.0000   0.0000

          k = 0.1333 0.3079 0.0000 ( 11359 PWs)   bands (ev):

   -29.3576 -29.3215 -29.2808 -29.2656 -29.2293 -29.1972 -29.1786 -29.1521
   -29.1375 -29.0956 -11.2659  -7.4018  -3.5004  -2.5317  -1.3551   1.2803
     2.1624   3.0239   4.4407   4.5734

     occupation numbers 
     1.0000   1.0000   1.0000   1.0000   1.0000   1.0000   1.0000   1.0000
     1.0000   1.0000   1.0000   1.0000   1.0000   1.0000   1.0000   0.0000
     0.0000   0.0000   0.0000   0.0000

          k = 0.1333 0.3849 0.0000 ( 11350 PWs)   bands (ev):

   -29.3561 -29.3062 -29.2773 -29.2570 -29.2219 -29.2066 -29.1807 -29.1636
   -29.1474 -29.0965 -10.8698  -7.7383  -3.7279  -2.8513  -1.5537   1.1778
     2.1460   2.8133   4.7808   4.9550

     occupation numbers 
     1.0000   1.0000   1.0000   1.0000   1.0000   1.0000   1.0000   1.0000
     1.0000   1.0000   1.0000   1.0000   1.0000   1.0000   1.0000   0.0000
     0.0000   0.0000   0.0000   0.0000

          k = 0.1333 0.4619 0.0000 ( 11338 PWs)   bands (ev):

   -29.3550 -29.2949 -29.2692 -29.2472 -29.2188 -29.2138 -29.1853 -29.1784
   -29.1516 -29.0973 -10.4366  -8.1821  -3.8218  -2.9430  -1.8903   1.2362
     2.0367   2.6234   4.7831   5.4460

     occupation numbers 
     1.0000   1.0000   1.0000   1.0000   1.0000   1.0000   1.0000   1.0000
     1.0000   1.0000   1.0000   1.0000   1.0000   1.0000   1.0000   0.0000
     0.0000   0.0000   0.0000   0.0000

          k = 0.1333 0.5389 0.0000 ( 11357 PWs)   bands (ev):

   -29.3543 -29.2906 -29.2566 -29.2381 -29.2292 -29.2128 -29.1921 -29.1855
   -29.1534 -29.0978 -10.0777  -8.5667  -3.8591  -2.8385  -2.2277   1.3539
     1.9175   2.5301   4.5949   6.0932

     occupation numbers 
     1.0000   1.0000   1.0000   1.0000   1.0000   1.0000   1.0000   1.0000
     1.0000   1.0000   1.0000   1.0000   1.0000   1.0000   1.0000   0.0000
     0.0000   0.0000   0.0000   0.0000

          k = 0.2000 0.3464 0.0000 ( 11359 PWs)   bands (ev):

   -29.3564 -29.3066 -29.2772 -29.2600 -29.2218 -29.2066 -29.1787 -29.1620
   -29.1476 -29.0968 -10.9086  -7.6810  -3.5580  -3.1482  -1.4868   1.5423
     1.7527   3.1503   4.8093   4.9243

     occupation numbers 
     1.0000   1.0000   1.0000   1.0000   1.0000   1.0000   1.0000   1.0000
     1.0000   1.0000   1.0000   1.0000   1.0000   1.0000   1.0000   0.0000
     0.0000   0.0000   0.0000   0.0000

          k = 0.2000 0.4234 0.0000 ( 11359 PWs)   bands (ev):

   -29.3552 -29.2916 -29.2725 -29.2522 -29.2177 -29.2139 -29.1799 -29.1771
   -29.1535 -29.0979 -10.4911  -8.0744  -3.6938  -3.3537  -1.7485   1.3529
     1.8417   3.1062   5.1468   5.3893

     occupation numbers 
     1.0000   1.0000   1.0000   1.0000   1.0000   1.0000   1.0000   1.0000
     1.0000   1.0000   1.0000   1.0000   1.0000   1.0000   1.0000   0.0000
     0.0000   0.0000   0.0000   0.0000

          k = 0.2000 0.5004 0.0000 ( 11356 PWs)   bands (ev):

   -29.3544 -29.2830 -29.2622 -29.2430 -29.2298 -29.2087 -29.1932 -29.1802
   -29.1570 -29.0987 -10.0652  -8.5070  -3.9580  -3.1206  -2.0938   1.1256
     2.1623   2.8680   5.1123   5.9654

     occupation numbers 
     1.0000   1.0000   1.0000   1.0000   1.0000   1.0000   1.0000   1.0000
     1.0000   1.0000   1.0000   1.0000   1.0000   1.0000   1.0000   0.0000
     0.0000   0.0000   0.0000   0.0000

          k = 0.2000 0.5773 0.0000 ( 11348 PWs)   bands (ev):

   -29.3542 -29.2812 -29.2509 -29.2425 -29.2345 -29.2101 -29.1980 -29.1811
   -29.1583 -29.0990  -9.8300  -8.7490  -4.0504  -2.9335  -2.3172   1.0493
     2.5055   2.5479   5.0337   6.3488

     occupation numbers 
     1.0000   1.0000   1.0000   1.0000   1.0000   1.0000   1.0000   1.0000
     1.0000   1.0000   1.0000   1.0000   1.0000   1.0000   1.0000   0.0000
     0.0000   0.0000   0.0000   0.0000

          k = 0.2667 0.4619 0.0000 ( 11374 PWs)   bands (ev):

   -29.3545 -29.2769 -29.2682 -29.2442 -29.2299 -29.2072 -29.1936 -29.1777
   -29.1590 -29.0991 -10.0651  -8.4748  -4.0110  -3.2161  -2.0273   1.0169
     2.1436   3.1710   5.7267   5.8739

     occupation numbers 
     1.0000   1.0000   1.0000   1.0000   1.0000   1.0000   1.0000   1.0000
     1.0000   1.0000   1.0000   1.0000   1.0000   1.0000   1.0000   0.0000
     0.0000   0.0000   0.0000   0.0000

          k = 0.2667 0.5389 0.0000 ( 11381 PWs)   bands (ev):

   -29.3541 -29.2702 -29.2580 -29.2435 -29.2336 -29.2088 -29.2024 -29.1758
   -29.1632 -29.0999  -9.6629  -8.8659  -4.2346  -2.9150  -2.3375   0.7914
     2.5223   2.9672   5.8341   6.0420

     occupation numbers 
     1.0000   1.0000   1.0000   1.0000   1.0000   1.0000   1.0000   1.0000
     1.0000   1.0000   1.0000   1.0000   1.0000   1.0000   1.0000   0.0000
     0.0000   0.0000   0.0000   0.0000

          k = 0.3333 0.5773 0.0000 ( 11406 PWs)   bands (ev):

   -29.3540 -29.2574 -29.2566 -29.2565 -29.2215 -29.2215 -29.2019 -29.1698
   -29.1697 -29.1003  -9.2555  -9.2554  -4.3500  -2.6201  -2.6201   0.6548
     2.8239   2.8239   5.8647   6.7034

     occupation numbers 
     1.0000   1.0000   1.0000   1.0000   1.0000   1.0000   1.0000   1.0000
     1.0000   1.0000   1.0000   1.0000   1.0000   1.0000   1.0000   0.0000
     0.0000   0.0000   0.0000   0.0000

     highest occupied, lowest unoccupied level (ev):    -0.6585    0.5110

!    total energy              =    -369.92724641 Ry
     estimated scf accuracy    <          3.0E-09 Ry

     The total energy is the sum of the following terms:
     one-electron contribution =    -802.41710928 Ry
     hartree contribution      =     406.75313914 Ry
     xc contribution           =     -88.03320748 Ry
     ewald contribution        =     113.80485370 Ry
     DFT-D3 Dispersion         =      -0.03492249 Ry

     convergence has been achieved in   9 iterations

     negative rho (up, down):  2.925E-06 0.000E+00

     Forces acting on atoms (cartesian axes, Ry/au):

     atom    1 type  1   force =     0.00000000    0.00000000    0.00004353
     atom    2 type  1   force =     0.00000000    0.00000000   -0.00004353
     The non-local contrib.  to forces
     atom    1 type  1   force =     0.00000000    0.00000000    0.51447094
     atom    2 type  1   force =    -0.00000000   -0.00000000   -0.51446318
     The ionic contribution  to forces
     atom    1 type  1   force =    -0.00000001    0.00000001  -35.89806874
     atom    2 type  1   force =     0.00000001   -0.00000001   35.89806874
     The local contribution  to forces
     atom    1 type  1   force =     0.00000000   -0.00000000   35.38160208
     atom    2 type  1   force =     0.00000040   -0.00000023  -35.38160299
     The core correction contribution to forces
     atom    1 type  1   force =    -0.00000000    0.00000000    0.00078388
     atom    2 type  1   force =     0.00000004   -0.00000002   -0.00078723
     The Hubbard contrib.    to forces
     atom    1 type  1   force =     0.00000000    0.00000000    0.00000000
     atom    2 type  1   force =     0.00000000    0.00000000    0.00000000
     The SCF correction term to forces
     atom    1 type  1   force =     0.00000000   -0.00000000    0.00000000
     atom    2 type  1   force =    -0.00000000    0.00000000    0.00000325

     DFT-D3 dispersion contribution to forces:
     atom    1 type  1   force =     0.00000000   -0.00000000    0.00125813
     atom    2 type  1   force =    -0.00000000    0.00000000   -0.00125813

     Total force =     0.000044     Total SCF correction =     0.000003

     DFT-D3 dispersion Force =     0.001779


     Computing stress (Cartesian axis) and pressure


     negative rho (up, down):  2.925E-06 0.000E+00
          total   stress  (Ry/bohr**3)                   (kbar)     P=        0.10
   0.00000110  -0.00000000   0.00000000            0.16       -0.00        0.00
   0.00000000   0.00000110   0.00000000            0.00        0.16        0.00
  -0.00000000  -0.00000000  -0.00000007           -0.00       -0.00       -0.01

     kinetic stress (kbar)   4815.70     -0.00     -0.00
                               -0.00   4815.70     -0.00
                               -0.00     -0.00   4838.56

     local   stress (kbar) -62970.79      0.00     -0.00
                                0.00 -62970.79      0.00
                               -0.00      0.00  63646.55

     nonloc. stress (kbar)     28.93     -0.00      0.00
                               -0.00     28.93      0.00
                                0.00      0.00     47.57

     hartree stress (kbar)  34192.91     -0.00     -0.00
                               -0.00  34192.91     -0.00
                               -0.00     -0.00 -27093.87

     exc-cor stress (kbar)   2959.77     -0.00      0.00
                               -0.00   2959.77     -0.00
                                0.00     -0.00   2958.50

     corecor stress (kbar)  -4664.84     -0.00      0.00
                               -0.00  -4664.84     -0.00
                                0.00     -0.00  -4665.31

     ewald   stress (kbar)  25642.29     -0.00      0.00
                               -0.00  25642.29     -0.00
                                0.00     -0.00 -39731.56

     hubbard stress (kbar)      0.00      0.00      0.00
                                0.00      0.00      0.00
                                0.00      0.00      0.00

     DFT-D   stress (kbar)     -3.80     -0.00     -0.00
                               -0.00     -3.80      0.00
                               -0.00      0.00     -0.46

     XDM     stress (kbar)      0.00      0.00      0.00
                                0.00      0.00      0.00
                                0.00      0.00      0.00

     dft-nl  stress (kbar)      0.00      0.00      0.00
                                0.00      0.00      0.00
                                0.00      0.00      0.00

     TS-vdW  stress (kbar)      0.00      0.00      0.00
                                0.00      0.00      0.00
                                0.00      0.00      0.00



     Writing output data file ./tmp/Sb.save/

     init_run     :      3.54s CPU      3.73s WALL (       2 calls)
     electrons    :    150.14s CPU    161.66s WALL (      10 calls)
     update_pot   :      9.84s CPU      9.93s WALL (       8 calls)
     forces       :     10.39s CPU     11.12s WALL (      10 calls)
     stress       :     32.33s CPU     33.58s WALL (      10 calls)

     Called by init_run:
     wfcinit      :      1.21s CPU      1.28s WALL (       2 calls)
     wfcinit:atom :      0.02s CPU      0.02s WALL (      54 calls)
     wfcinit:wfcr :      1.16s CPU      1.23s WALL (      54 calls)
     potinit      :      0.66s CPU      0.68s WALL (       2 calls)
     hinit0       :      1.30s CPU      1.31s WALL (       2 calls)

     Called by electrons:
     c_bands      :    109.94s CPU    116.62s WALL (      64 calls)
     sum_band     :     29.05s CPU     31.60s WALL (      64 calls)
     v_of_rho     :      3.95s CPU      4.24s WALL (      67 calls)
     v_h          :      0.31s CPU      0.34s WALL (      67 calls)
     v_xc         :      4.96s CPU      5.31s WALL (      87 calls)
     newd         :      8.01s CPU     10.26s WALL (      67 calls)
     mix_rho      :      0.43s CPU      0.48s WALL (      64 calls)

     Called by c_bands:
     init_us_2    :      1.53s CPU      1.92s WALL (    4050 calls)
     cegterg      :    106.42s CPU    112.96s WALL (    1728 calls)

     Called by sum_band:
     sum_band:wei :      0.00s CPU      0.00s WALL (      64 calls)
     sum_band:loo :     20.38s CPU     20.95s WALL (      64 calls)
     sum_band:buf :      0.15s CPU      0.15s WALL (    1728 calls)
     sum_band:ini :      0.65s CPU      0.88s WALL (    1728 calls)
     sum_band:cal :      1.56s CPU      1.76s WALL (    1728 calls)
     sum_band:bec :      0.01s CPU      0.01s WALL (    1728 calls)
     addusdens    :      8.16s CPU     10.11s WALL (      64 calls)
     addusd:skk   :      0.02s CPU      0.03s WALL (      64 calls)
     addusd:dgemm :      1.32s CPU      2.56s WALL (      64 calls)
     addusd:qvan2 :      6.08s CPU      6.33s WALL (      64 calls)

     Called by *egterg:
     cdiaghg      :      1.57s CPU      1.88s WALL (    5481 calls)
     cegterg:over :      5.46s CPU      6.43s WALL (    4158 calls)
     cegterg:upda :      2.49s CPU      3.08s WALL (    4158 calls)
     cegterg:last :      3.57s CPU      4.18s WALL (    3108 calls)
     h_psi        :     88.32s CPU     90.86s WALL (    5940 calls)
     s_psi        :      2.55s CPU      3.22s WALL (    5940 calls)
     g_psi        :      0.20s CPU      0.20s WALL (    4158 calls)

     Called by h_psi:
     h_psi:calbec :      4.54s CPU      5.21s WALL (    5940 calls)
     vloc_psi     :     80.55s CPU     81.45s WALL (    5940 calls)
     add_vuspsi   :      2.92s CPU      3.78s WALL (    5940 calls)

     General routines
     calbec       :      7.43s CPU      8.57s WALL (    9018 calls)
     fft          :      4.49s CPU      4.68s WALL (    1116 calls)
     ffts         :      0.10s CPU      0.11s WALL (     131 calls)
     fftw         :     92.12s CPU     93.10s WALL (  206078 calls)
     interpolate  :      0.29s CPU      0.32s WALL (      67 calls)

     Parallel routines
     fft_scatt_xy :      8.72s CPU      8.87s WALL (  207325 calls)
     fft_scatt_yz :     11.19s CPU     11.41s WALL (  207325 calls)

     PWSCF        :   3m27.40s CPU   3m41.51s WALL


   This run was terminated on:  16:31:13  29Apr2026            

=------------------------------------------------------------------------------=
   JOB DONE.
=------------------------------------------------------------------------------=
Note: The following floating-point exceptions are signalling: IEEE_INVALID_FLAG IEEE_DIVIDE_BY_ZERO IEEE_UNDERFLOW_FLAG
