
     Program PWSCF v.6.7MaX starts on 29Apr2026 at 16:20:37 

     This program is part of the open-source Quantum ESPRESSO suite
     for quantum simulation of materials; please cite
         "P. Giannozzi et al., J. Phys.:Condens. Matter 21 395502 (2009);
         "P. Giannozzi et al., J. Phys.:Condens. Matter 29 465901 (2017);
          URL http://www.quantum-espresso.org", 
     in publications or presentations arising from this work. More details at
     http://www.quantum-espresso.org/quote

     Parallel version (MPI & OpenMP), running on       4 processor cores
     Number of MPI processes:                 4
     Threads/MPI process:                     1

     MPI processes distributed on     1 nodes
     R & G space division:  proc/nbgrp/npool/nimage =       4
     Waiting for input...
     Reading input from standard input

     Current dimensions of program PWSCF are:
     Max number of different atomic species (ntypx) = 10
     Max number of k-points (npk) =  40000
     Max angular momentum in pseudopotentials (lmaxx) =  3

     --------------------------------------------
     Parameters for DFT-D3 Dispersion Correction:
     --------------------------------------------
       Reference C6 values for interpolation: 

         atom   Coordination number   C6
         Sb         0.000           985.88
         Sb         0.975           946.94
         Sb         1.952           896.11
         Sb         2.932           834.76

       Values used:

         atom   Coordination number  R0_AB[au]  C6      C8
         Sb         3.189            3.794    834.93  89598.95
         Sb         3.189            3.794    834.93  89598.95

         Molecular C6 ( Ry / a.u.^6 ) =      3339.72


     Subspace diagonalization in iterative solution of the eigenvalue problem:
     a serial algorithm will be used


     Parallelization info
     --------------------
     sticks:   dense  smooth     PW     G-vecs:    dense   smooth      PW
     Min         607     241     70                89868    22725    3484
     Max         609     243     71                89873    22734    3491
     Sum        2431     967    283               359483    90913   13953



     bravais-lattice index     =            4
     lattice parameter (alat)  =       7.6855  a.u.
     unit-cell volume          =    1449.9961 (a.u.)^3
     number of atoms/cell      =            2
     number of atomic types    =            1
     number of electrons       =        30.00
     number of Kohn-Sham states=           20
     kinetic-energy cutoff     =      60.0000  Ry
     charge density cutoff     =     600.0000  Ry
     scf convergence threshold =      1.0E-06
     mixing beta               =       0.7000
     number of iterations used =            8  plain     mixing
     energy convergence thresh.=      1.0E-04
     force convergence thresh. =      1.0E-03
     press convergence thresh. =      1.0E-03
     Exchange-correlation=  SLA  PW   PBX  PBC
                           (   1   4   3   4   0   0   0)
     nstep                     =           50


     celldm(1)=   7.685516  celldm(2)=   0.000000  celldm(3)=   3.688222
     celldm(4)=   0.000000  celldm(5)=   0.000000  celldm(6)=   0.000000

     crystal axes: (cart. coord. in units of alat)
               a(1) = (   1.000000   0.000000   0.000000 )  
               a(2) = (  -0.500000   0.866025   0.000000 )  
               a(3) = (   0.000000   0.000000   3.688222 )  

     reciprocal axes: (cart. coord. in units 2 pi/alat)
               b(1) = (  1.000000  0.577350 -0.000000 )  
               b(2) = (  0.000000  1.154701  0.000000 )  
               b(3) = (  0.000000 -0.000000  0.271133 )  


     PseudoPot. # 1 for Sb read from file:
     /Users/cdhogan/Research/Codes/espresso/PSEUDO/SSSP_1.3.0_PBE_eff/sb_pbe_v1.4.uspp.F.UPF
     MD5 check sum: 9bc50dfb53373b713f5709b9110fe27f
     Pseudo is Ultrasoft + core correction, Zval = 15.0
     Generated by new atomic code, or converted to UPF format
     Using radial grid of  891 points,  6 beta functions with: 
                l(1) =   0
                l(2) =   0
                l(3) =   1
                l(4) =   1
                l(5) =   2
                l(6) =   2
     Q(r) pseudized with  8 coefficients,  rinner =    1.350   1.350   1.350
                                                       1.350   1.350

     atomic species   valence    mass     pseudopotential
        Sb            15.00    12.01100     Sb( 1.00)

      6 Sym. Ops. (no inversion) found


                                    s                        frac. trans.

      isym =  1     identity                                     

 cryst.   s( 1) = (     1          0          0      )
                  (     0          1          0      )
                  (     0          0          1      )

 cart.    s( 1) = (  1.0000000  0.0000000  0.0000000 )
                  (  0.0000000  1.0000000  0.0000000 )
                  (  0.0000000  0.0000000  1.0000000 )


      isym =  2     120 deg rotation - cryst. axis [0,0,1]       

 cryst.   s( 2) = (     0          1          0      )
                  (    -1         -1          0      )
                  (     0          0          1      )

 cart.    s( 2) = ( -0.5000000 -0.8660254  0.0000000 )
                  (  0.8660254 -0.5000000  0.0000000 )
                  (  0.0000000  0.0000000  1.0000000 )


      isym =  3     120 deg rotation - cryst. axis [0,0,-1]      

 cryst.   s( 3) = (    -1         -1          0      )
                  (     1          0          0      )
                  (     0          0          1      )

 cart.    s( 3) = ( -0.5000000  0.8660254  0.0000000 )
                  ( -0.8660254 -0.5000000  0.0000000 )
                  (  0.0000000  0.0000000  1.0000000 )


      isym =  4     inv. 180 deg rotation - cart. axis [1,0,0]   

 cryst.   s( 4) = (    -1          0          0      )
                  (     1          1          0      )
                  (     0          0          1      )

 cart.    s( 4) = ( -1.0000000  0.0000000  0.0000000 )
                  (  0.0000000  1.0000000  0.0000000 )
                  (  0.0000000  0.0000000  1.0000000 )


      isym =  5     inv. 180 deg rotation - cryst. axis [0,1,0]  

 cryst.   s( 5) = (     1          1          0      )
                  (     0         -1          0      )
                  (     0          0          1      )

 cart.    s( 5) = (  0.5000000  0.8660254  0.0000000 )
                  (  0.8660254 -0.5000000  0.0000000 )
                  (  0.0000000  0.0000000  1.0000000 )


      isym =  6     inv. 180 deg rotation - cryst. axis [1,1,0]  

 cryst.   s( 6) = (     0         -1          0      )
                  (    -1          0          0      )
                  (     0          0          1      )

 cart.    s( 6) = (  0.5000000 -0.8660254  0.0000000 )
                  ( -0.8660254 -0.5000000  0.0000000 )
                  (  0.0000000  0.0000000  1.0000000 )


     point group C_3v (3m)  
     there are  3 classes
     the character table:

       E     2C3   3s_v 
A_1    1.00  1.00  1.00
A_2    1.00  1.00 -1.00
E      2.00 -1.00  0.00

     the symmetry operations in each class and the name of the first element:

     E        1
          identity                                               
     2C3      2    3
          120 deg rotation - cryst. axis [0,0,1]                 
     3s_v     4    5    6
          inv. 180 deg rotation - cart. axis [1,0,0]             

   Cartesian axes

     site n.     atom                  positions (alat units)
         1           Sb  tau(   1) = (   0.0000000   0.0000000   1.8441111  )
         2           Sb  tau(   2) = (  -0.0000000   0.5773503   2.2501844  )

   Crystallographic axes

     site n.     atom                  positions (cryst. coord.)
         1           Sb  tau(   1) = (  0.0000000  0.0000000  0.5000000  )
         2           Sb  tau(   2) = (  0.3333333  0.6666667  0.6101000  )

     number of k points=    27
                       cart. coord. in units 2pi/alat
        k(    1) = (   0.0000000   0.0000000   0.0000000), wk =   0.0088889
        k(    2) = (   0.0000000   0.0769800   0.0000000), wk =   0.0533333
        k(    3) = (   0.0000000   0.1539601   0.0000000), wk =   0.0533333
        k(    4) = (   0.0000000   0.2309401   0.0000000), wk =   0.0533333
        k(    5) = (   0.0000000   0.3079201   0.0000000), wk =   0.0533333
        k(    6) = (   0.0000000   0.3849002   0.0000000), wk =   0.0533333
        k(    7) = (   0.0000000   0.4618802   0.0000000), wk =   0.0533333
        k(    8) = (   0.0000000   0.5388603   0.0000000), wk =   0.0533333
        k(    9) = (   0.0666667   0.1154701   0.0000000), wk =   0.0533333
        k(   10) = (   0.0666667   0.1924501   0.0000000), wk =   0.1066667
        k(   11) = (   0.0666667   0.2694301   0.0000000), wk =   0.1066667
        k(   12) = (   0.0666667   0.3464102   0.0000000), wk =   0.1066667
        k(   13) = (   0.0666667   0.4233902   0.0000000), wk =   0.1066667
        k(   14) = (   0.0666667   0.5003702   0.0000000), wk =   0.1066667
        k(   15) = (   0.0666667   0.5773503   0.0000000), wk =   0.0533333
        k(   16) = (   0.1333333   0.2309401   0.0000000), wk =   0.0533333
        k(   17) = (   0.1333333   0.3079201   0.0000000), wk =   0.1066667
        k(   18) = (   0.1333333   0.3849002   0.0000000), wk =   0.1066667
        k(   19) = (   0.1333333   0.4618802   0.0000000), wk =   0.1066667
        k(   20) = (   0.1333333   0.5388603   0.0000000), wk =   0.1066667
        k(   21) = (   0.2000000   0.3464102   0.0000000), wk =   0.0533333
        k(   22) = (   0.2000000   0.4233902   0.0000000), wk =   0.1066667
        k(   23) = (   0.2000000   0.5003702   0.0000000), wk =   0.1066667
        k(   24) = (   0.2000000   0.5773503   0.0000000), wk =   0.0533333
        k(   25) = (   0.2666667   0.4618802   0.0000000), wk =   0.0533333
        k(   26) = (   0.2666667   0.5388603   0.0000000), wk =   0.1066667
        k(   27) = (   0.3333333   0.5773503   0.0000000), wk =   0.0177778

                       cryst. coord.
        k(    1) = (   0.0000000   0.0000000   0.0000000), wk =   0.0088889
        k(    2) = (   0.0000000   0.0666667   0.0000000), wk =   0.0533333
        k(    3) = (   0.0000000   0.1333333   0.0000000), wk =   0.0533333
        k(    4) = (   0.0000000   0.2000000   0.0000000), wk =   0.0533333
        k(    5) = (   0.0000000   0.2666667   0.0000000), wk =   0.0533333
        k(    6) = (   0.0000000   0.3333333   0.0000000), wk =   0.0533333
        k(    7) = (   0.0000000   0.4000000   0.0000000), wk =   0.0533333
        k(    8) = (   0.0000000   0.4666667   0.0000000), wk =   0.0533333
        k(    9) = (   0.0666667   0.0666667   0.0000000), wk =   0.0533333
        k(   10) = (   0.0666667   0.1333333   0.0000000), wk =   0.1066667
        k(   11) = (   0.0666667   0.2000000   0.0000000), wk =   0.1066667
        k(   12) = (   0.0666667   0.2666667   0.0000000), wk =   0.1066667
        k(   13) = (   0.0666667   0.3333333   0.0000000), wk =   0.1066667
        k(   14) = (   0.0666667   0.4000000   0.0000000), wk =   0.1066667
        k(   15) = (   0.0666667   0.4666667   0.0000000), wk =   0.0533333
        k(   16) = (   0.1333333   0.1333333   0.0000000), wk =   0.0533333
        k(   17) = (   0.1333333   0.2000000   0.0000000), wk =   0.1066667
        k(   18) = (   0.1333333   0.2666667   0.0000000), wk =   0.1066667
        k(   19) = (   0.1333333   0.3333333   0.0000000), wk =   0.1066667
        k(   20) = (   0.1333333   0.4000000   0.0000000), wk =   0.1066667
        k(   21) = (   0.2000000   0.2000000   0.0000000), wk =   0.0533333
        k(   22) = (   0.2000000   0.2666667   0.0000000), wk =   0.1066667
        k(   23) = (   0.2000000   0.3333333   0.0000000), wk =   0.1066667
        k(   24) = (   0.2000000   0.4000000   0.0000000), wk =   0.0533333
        k(   25) = (   0.2666667   0.2666667   0.0000000), wk =   0.0533333
        k(   26) = (   0.2666667   0.3333333   0.0000000), wk =   0.1066667
        k(   27) = (   0.3333333   0.3333333   0.0000000), wk =   0.0177778

     Dense  grid:   359483 G-vectors     FFT dimensions: (  60,  60, 225)

     Smooth grid:    90913 G-vectors     FFT dimensions: (  40,  40, 144)

     Dynamical RAM for                 wfc:       0.87 MB

     Dynamical RAM for     wfc (w. buffer):      24.31 MB

     Dynamical RAM for           str. fact:       1.37 MB

     Dynamical RAM for           local pot:       0.00 MB

     Dynamical RAM for          nlocal pot:       1.56 MB

     Dynamical RAM for                qrad:       3.93 MB

     Dynamical RAM for          rho,v,vnew:       8.81 MB

     Dynamical RAM for               rhoin:       2.94 MB

     Dynamical RAM for            rho*nmix:      21.94 MB

     Dynamical RAM for           G-vectors:       5.32 MB

     Dynamical RAM for          h,s,v(r/c):       0.07 MB

     Dynamical RAM for          <psi|beta>:       0.01 MB

     Dynamical RAM for                 psi:       1.74 MB

     Dynamical RAM for                hpsi:       1.74 MB

     Dynamical RAM for                spsi:       1.74 MB

     Dynamical RAM for      wfcinit/wfcrot:       1.75 MB

     Dynamical RAM for           addusdens:     257.81 MB

     Dynamical RAM for          addusforce:     261.24 MB

     Dynamical RAM for         addusstress:     275.64 MB

     Estimated static dynamical RAM per process >      80.75 MB

     Estimated max dynamical RAM per process >     356.39 MB

     Estimated total dynamical RAM >       1.39 GB

     Initial potential from superposition of free atoms

     starting charge   27.99997, renormalised to   30.00000

     negative rho (up, down):  2.273E-03 0.000E+00
     Starting wfcs are   18 randomized atomic wfcs +    2 random wfcs

     total cpu time spent up to now is        1.8 secs

     Self-consistent Calculation

     iteration #  1     ecut=    60.00 Ry     beta= 0.70
     Davidson diagonalization with overlap
     ethr =  1.00E-02,  avg # of iterations =  7.1

     negative rho (up, down):  1.332E-05 0.000E+00

     total cpu time spent up to now is        5.0 secs

     total energy              =    -369.04893250 Ry
     estimated scf accuracy    <       2.27314706 Ry

     iteration #  2     ecut=    60.00 Ry     beta= 0.70
     Davidson diagonalization with overlap
     ethr =  7.58E-03,  avg # of iterations =  2.5

     negative rho (up, down):  1.661E-07 0.000E+00

     total cpu time spent up to now is        7.7 secs

     total energy              =    -369.84224603 Ry
     estimated scf accuracy    <       0.42333356 Ry

     iteration #  3     ecut=    60.00 Ry     beta= 0.70
     Davidson diagonalization with overlap
     ethr =  1.41E-03,  avg # of iterations =  2.0

     total cpu time spent up to now is       10.0 secs

     total energy              =    -369.92608451 Ry
     estimated scf accuracy    <       0.00761186 Ry

     iteration #  4     ecut=    60.00 Ry     beta= 0.70
     Davidson diagonalization with overlap
     ethr =  2.54E-05,  avg # of iterations =  7.0

     negative rho (up, down):  2.958E-07 0.000E+00

     total cpu time spent up to now is       12.9 secs

     total energy              =    -369.92717906 Ry
     estimated scf accuracy    <       0.00049648 Ry

     iteration #  5     ecut=    60.00 Ry     beta= 0.70
     Davidson diagonalization with overlap
     ethr =  1.65E-06,  avg # of iterations =  5.3

     negative rho (up, down):  1.482E-06 0.000E+00

     total cpu time spent up to now is       15.4 secs

     total energy              =    -369.92720767 Ry
     estimated scf accuracy    <       0.00018771 Ry

     iteration #  6     ecut=    60.00 Ry     beta= 0.70
     Davidson diagonalization with overlap
     ethr =  6.26E-07,  avg # of iterations =  2.4

     negative rho (up, down):  1.847E-06 0.000E+00

     total cpu time spent up to now is       17.5 secs

     total energy              =    -369.92723441 Ry
     estimated scf accuracy    <       0.00010337 Ry

     iteration #  7     ecut=    60.00 Ry     beta= 0.70
     Davidson diagonalization with overlap
     ethr =  3.45E-07,  avg # of iterations =  1.6

     negative rho (up, down):  2.995E-06 0.000E+00

     total cpu time spent up to now is       19.5 secs

     End of self-consistent calculation

          k = 0.0000 0.0000 0.0000 ( 11409 PWs)   bands (ev):

   -29.3635 -29.3635 -29.2881 -29.2881 -29.2457 -29.1772 -29.1772 -29.1400
   -29.0934 -29.0934 -12.1712  -7.1535  -1.4795  -0.6673  -0.6673   0.9931
     2.1210   2.1210   3.5716   3.6096

     occupation numbers 
     1.0000   1.0000   1.0000   1.0000   1.0000   1.0000   1.0000   1.0000
     1.0000   1.0000   1.0000   1.0000   1.0000   1.0000   1.0000   0.0000
     0.0000   0.0000   0.0000   0.0000

          k = 0.0000 0.0770 0.0000 ( 11411 PWs)   bands (ev):

   -29.3631 -29.3611 -29.2878 -29.2866 -29.2450 -29.1782 -29.1773 -29.1406
   -29.0961 -29.0935 -12.1221  -7.1465  -1.4556  -1.1992  -0.7856   1.3871
     2.0221   2.2331   3.6283   3.6825

     occupation numbers 
     1.0000   1.0000   1.0000   1.0000   1.0000   1.0000   1.0000   1.0000
     1.0000   1.0000   1.0000   1.0000   1.0000   1.0000   1.0000   0.0000
     0.0000   0.0000   0.0000   0.0000

          k = 0.0000 0.1540 0.0000 ( 11435 PWs)   bands (ev):

   -29.3622 -29.3542 -29.2870 -29.2822 -29.2428 -29.1813 -29.1777 -29.1424
   -29.1043 -29.0939 -11.9758  -7.1388  -2.1019  -1.3960  -1.0719   1.2976
     2.4042   2.4805   3.7762   3.8957

     occupation numbers 
     1.0000   1.0000   1.0000   1.0000   1.0000   1.0000   1.0000   1.0000
     1.0000   1.0000   1.0000   1.0000   1.0000   1.0000   1.0000   0.0000
     0.0000   0.0000   0.0000   0.0000

          k = 0.0000 0.2309 0.0000 ( 11427 PWs)   bands (ev):

   -29.3607 -29.3431 -29.2859 -29.2753 -29.2389 -29.1862 -29.1787 -29.1453
   -29.1169 -29.0945 -11.7356  -7.1746  -2.9404  -1.4128  -1.3469   0.8601
     2.7092   2.7959   3.9747   4.1502

     occupation numbers 
     1.0000   1.0000   1.0000   1.0000   1.0000   1.0000   1.0000   1.0000
     1.0000   1.0000   1.0000   1.0000   1.0000   1.0000   1.0000   0.0000
     0.0000   0.0000   0.0000   0.0000

          k = 0.0000 0.3079 0.0000 ( 11408 PWs)   bands (ev):

   -29.3590 -29.3289 -29.2843 -29.2663 -29.2333 -29.1929 -29.1809 -29.1499
   -29.1320 -29.0952 -11.4085  -7.3290  -3.5559  -1.7342  -1.4041   0.5530
     2.6995   2.8346   4.2413   4.4265

     occupation numbers 
     1.0000   1.0000   1.0000   1.0000   1.0000   1.0000   1.0000   1.0000
     1.0000   1.0000   1.0000   1.0000   1.0000   1.0000   1.0000   0.0000
     0.0000   0.0000   0.0000   0.0000

          k = 0.0000 0.3849 0.0000 ( 11358 PWs)   bands (ev):

   -29.3573 -29.3141 -29.2807 -29.2559 -29.2268 -29.2012 -29.1847 -29.1601
   -29.1435 -29.0959 -11.0098  -7.6598  -3.8612  -1.9970  -1.6477   0.5092
     2.3264   2.8649   4.5989   4.7137

     occupation numbers 
     1.0000   1.0000   1.0000   1.0000   1.0000   1.0000   1.0000   1.0000
     1.0000   1.0000   1.0000   1.0000   1.0000   1.0000   1.0000   0.0000
     0.0000   0.0000   0.0000   0.0000

          k = 0.0000 0.4619 0.0000 ( 11360 PWs)   bands (ev):

   -29.3559 -29.3035 -29.2720 -29.2445 -29.2214 -29.2108 -29.1902 -29.1753
   -29.1479 -29.0965 -10.5776  -8.1152  -3.8942  -2.1808  -1.9978   0.6722
     1.9428   2.8495   4.4902   5.2428

     occupation numbers 
     1.0000   1.0000   1.0000   1.0000   1.0000   1.0000   1.0000   1.0000
     1.0000   1.0000   1.0000   1.0000   1.0000   1.0000   1.0000   0.0000
     0.0000   0.0000   0.0000   0.0000

          k = 0.0000 0.5389 0.0000 ( 11336 PWs)   bands (ev):

   -29.3552 -29.2994 -29.2603 -29.2329 -29.2215 -29.2215 -29.1931 -29.1867
   -29.1495 -29.0968 -10.2287  -8.5024  -3.8151  -2.2749  -2.2677   0.8769
     1.6632   2.8311   4.3099   5.8698

     occupation numbers 
     1.0000   1.0000   1.0000   1.0000   1.0000   1.0000   1.0000   1.0000
     1.0000   1.0000   1.0000   1.0000   1.0000   1.0000   1.0000   0.0000
     0.0000   0.0000   0.0000   0.0000

          k = 0.0667 0.1155 0.0000 ( 11433 PWs)   bands (ev):

   -29.3625 -29.3564 -29.2871 -29.2838 -29.2435 -29.1804 -29.1775 -29.1418
   -29.1016 -29.0938 -12.0244  -7.1389  -1.8311  -1.4144  -1.0424   1.7425
     1.7838   2.5614   3.7344   3.8249

     occupation numbers 
     1.0000   1.0000   1.0000   1.0000   1.0000   1.0000   1.0000   1.0000
     1.0000   1.0000   1.0000   1.0000   1.0000   1.0000   1.0000   0.0000
     0.0000   0.0000   0.0000   0.0000

          k = 0.0667 0.1925 0.0000 ( 11448 PWs)   bands (ev):

   -29.3613 -29.3474 -29.2860 -29.2785 -29.2404 -29.1845 -29.1780 -29.1441
   -29.1120 -29.0943 -11.8310  -7.1518  -2.6070  -1.4700  -1.3323   1.3414
     2.1944   2.9148   3.9219   4.0591

     occupation numbers 
     1.0000   1.0000   1.0000   1.0000   1.0000   1.0000   1.0000   1.0000
     1.0000   1.0000   1.0000   1.0000   1.0000   1.0000   1.0000   0.0000
     0.0000   0.0000   0.0000   0.0000

          k = 0.0667 0.2694 0.0000 ( 11409 PWs)   bands (ev):

   -29.3597 -29.3346 -29.2844 -29.2710 -29.2354 -29.1906 -29.1791 -29.1478
   -29.1260 -29.0950 -11.5468  -7.2447  -3.2845  -1.8573  -1.3257   0.9469
     2.5030   2.9513   4.1427   4.3150

     occupation numbers 
     1.0000   1.0000   1.0000   1.0000   1.0000   1.0000   1.0000   1.0000
     1.0000   1.0000   1.0000   1.0000   1.0000   1.0000   1.0000   0.0000
     0.0000   0.0000   0.0000   0.0000

          k = 0.0667 0.3464 0.0000 ( 11373 PWs)   bands (ev):

   -29.3580 -29.3196 -29.2821 -29.2617 -29.2290 -29.1985 -29.1816 -29.1547
   -29.1401 -29.0958 -11.1818  -7.4903  -3.7192  -2.1835  -1.4502   0.7461
     2.6307   2.6403   4.4732   4.6347

     occupation numbers 
     1.0000   1.0000   1.0000   1.0000   1.0000   1.0000   1.0000   1.0000
     1.0000   1.0000   1.0000   1.0000   1.0000   1.0000   1.0000   0.0000
     0.0000   0.0000   0.0000   0.0000

          k = 0.0667 0.4234 0.0000 ( 11366 PWs)   bands (ev):

   -29.3565 -29.3060 -29.2764 -29.2512 -29.2224 -29.2077 -29.1859 -29.1687
   -29.1473 -29.0965 -10.7592  -7.8977  -3.8734  -2.4084  -1.7442   0.7983
     2.2086   2.6781   4.6685   5.0138

     occupation numbers 
     1.0000   1.0000   1.0000   1.0000   1.0000   1.0000   1.0000   1.0000
     1.0000   1.0000   1.0000   1.0000   1.0000   1.0000   1.0000   0.0000
     0.0000   0.0000   0.0000   0.0000

          k = 0.0667 0.5004 0.0000 ( 11364 PWs)   bands (ev):

   -29.3555 -29.2987 -29.2651 -29.2402 -29.2209 -29.2161 -29.1912 -29.1825
   -29.1500 -29.0970 -10.3433  -8.3505  -3.8455  -2.5027  -2.0952   1.0207
     1.8131   2.6939   4.4592   5.6103

     occupation numbers 
     1.0000   1.0000   1.0000   1.0000   1.0000   1.0000   1.0000   1.0000
     1.0000   1.0000   1.0000   1.0000   1.0000   1.0000   1.0000   0.0000
     0.0000   0.0000   0.0000   0.0000

          k = 0.0667 0.5774 0.0000 ( 11330 PWs)   bands (ev):

   -29.3551 -29.2969 -29.2570 -29.2309 -29.2290 -29.2187 -29.1908 -29.1902
   -29.1507 -29.0972 -10.1326  -8.5822  -3.8044  -2.4765  -2.3028   1.2186
     1.5697   2.7014   4.3459   6.2239

     occupation numbers 
     1.0000   1.0000   1.0000   1.0000   1.0000   1.0000   1.0000   1.0000
     1.0000   1.0000   1.0000   1.0000   1.0000   1.0000   1.0000   0.0000
     0.0000   0.0000   0.0000   0.0000

          k = 0.1333 0.2309 0.0000 ( 11383 PWs)   bands (ev):

   -29.3600 -29.3364 -29.2840 -29.2732 -29.2360 -29.1902 -29.1783 -29.1472
   -29.1238 -29.0951 -11.5932  -7.2193  -3.1095  -2.0373  -1.3077   1.4494
     2.0695   3.0901   4.1644   4.2557

     occupation numbers 
     1.0000   1.0000   1.0000   1.0000   1.0000   1.0000   1.0000   1.0000
     1.0000   1.0000   1.0000   1.0000   1.0000   1.0000   1.0000   0.0000
     0.0000   0.0000   0.0000   0.0000

          k = 0.1333 0.3079 0.0000 ( 11363 PWs)   bands (ev):

   -29.3585 -29.3223 -29.2816 -29.2663 -29.2297 -29.1978 -29.1791 -29.1525
   -29.1378 -29.0960 -11.2693  -7.4031  -3.5038  -2.5377  -1.3545   1.2788
     2.1603   3.0199   4.4359   4.5684

     occupation numbers 
     1.0000   1.0000   1.0000   1.0000   1.0000   1.0000   1.0000   1.0000
     1.0000   1.0000   1.0000   1.0000   1.0000   1.0000   1.0000   0.0000
     0.0000   0.0000   0.0000   0.0000

          k = 0.1333 0.3849 0.0000 ( 11362 PWs)   bands (ev):

   -29.3571 -29.3071 -29.2780 -29.2577 -29.2224 -29.2072 -29.1811 -29.1642
   -29.1475 -29.0970 -10.8734  -7.7410  -3.7298  -2.8567  -1.5538   1.1774
     2.1457   2.8091   4.7768   4.9506

     occupation numbers 
     1.0000   1.0000   1.0000   1.0000   1.0000   1.0000   1.0000   1.0000
     1.0000   1.0000   1.0000   1.0000   1.0000   1.0000   1.0000   0.0000
     0.0000   0.0000   0.0000   0.0000

          k = 0.1333 0.4619 0.0000 ( 11346 PWs)   bands (ev):

   -29.3559 -29.2957 -29.2698 -29.2479 -29.2194 -29.2144 -29.1857 -29.1790
   -29.1518 -29.0977 -10.4405  -8.1856  -3.8233  -2.9475  -1.8906   1.2367
     2.0353   2.6213   4.7806   5.4421

     occupation numbers 
     1.0000   1.0000   1.0000   1.0000   1.0000   1.0000   1.0000   1.0000
     1.0000   1.0000   1.0000   1.0000   1.0000   1.0000   1.0000   0.0000
     0.0000   0.0000   0.0000   0.0000

          k = 0.1333 0.5389 0.0000 ( 11367 PWs)   bands (ev):

   -29.3552 -29.2915 -29.2572 -29.2388 -29.2299 -29.2135 -29.1926 -29.1858
   -29.1536 -29.0982 -10.0819  -8.5705  -3.8609  -2.8426  -2.2275   1.3556
     1.9132   2.5307   4.5926   6.0894

     occupation numbers 
     1.0000   1.0000   1.0000   1.0000   1.0000   1.0000   1.0000   1.0000
     1.0000   1.0000   1.0000   1.0000   1.0000   1.0000   1.0000   0.0000
     0.0000   0.0000   0.0000   0.0000

          k = 0.2000 0.3464 0.0000 ( 11367 PWs)   bands (ev):

   -29.3573 -29.3074 -29.2780 -29.2607 -29.2223 -29.2072 -29.1791 -29.1626
   -29.1478 -29.0972 -10.9122  -7.6835  -3.5600  -3.1534  -1.4868   1.5424
     1.7526   3.1457   4.8028   4.9199

     occupation numbers 
     1.0000   1.0000   1.0000   1.0000   1.0000   1.0000   1.0000   1.0000
     1.0000   1.0000   1.0000   1.0000   1.0000   1.0000   1.0000   0.0000
     0.0000   0.0000   0.0000   0.0000

          k = 0.2000 0.4234 0.0000 ( 11371 PWs)   bands (ev):

   -29.3562 -29.2924 -29.2733 -29.2529 -29.2184 -29.2144 -29.1803 -29.1777
   -29.1537 -29.0983 -10.4949  -8.0778  -3.6971  -3.3563  -1.7488   1.3540
     1.8423   3.1027   5.1408   5.3852

     occupation numbers 
     1.0000   1.0000   1.0000   1.0000   1.0000   1.0000   1.0000   1.0000
     1.0000   1.0000   1.0000   1.0000   1.0000   1.0000   1.0000   0.0000
     0.0000   0.0000   0.0000   0.0000

          k = 0.2000 0.5004 0.0000 ( 11362 PWs)   bands (ev):

   -29.3554 -29.2839 -29.2629 -29.2436 -29.2304 -29.2094 -29.1939 -29.1806
   -29.1572 -29.0992 -10.0693  -8.5109  -3.9616  -3.1223  -2.0940   1.1274
     2.1628   2.8659   5.1073   5.9612

     occupation numbers 
     1.0000   1.0000   1.0000   1.0000   1.0000   1.0000   1.0000   1.0000
     1.0000   1.0000   1.0000   1.0000   1.0000   1.0000   1.0000   0.0000
     0.0000   0.0000   0.0000   0.0000

          k = 0.2000 0.5774 0.0000 ( 11356 PWs)   bands (ev):

   -29.3551 -29.2820 -29.2516 -29.2432 -29.2351 -29.2108 -29.1986 -29.1814
   -29.1585 -29.0994  -9.8342  -8.7529  -4.0539  -2.9354  -2.3171   1.0512
     2.5072   2.5451   5.0287   6.3456

     occupation numbers 
     1.0000   1.0000   1.0000   1.0000   1.0000   1.0000   1.0000   1.0000
     1.0000   1.0000   1.0000   1.0000   1.0000   1.0000   1.0000   0.0000
     0.0000   0.0000   0.0000   0.0000

          k = 0.2667 0.4619 0.0000 ( 11386 PWs)   bands (ev):

   -29.3555 -29.2777 -29.2689 -29.2448 -29.2306 -29.2078 -29.1942 -29.1780
   -29.1592 -29.0996 -10.0692  -8.4788  -4.0154  -3.2168  -2.0278   1.0186
     2.1450   3.1696   5.7190   5.8690

     occupation numbers 
     1.0000   1.0000   1.0000   1.0000   1.0000   1.0000   1.0000   1.0000
     1.0000   1.0000   1.0000   1.0000   1.0000   1.0000   1.0000   0.0000
     0.0000   0.0000   0.0000   0.0000

          k = 0.2667 0.5389 0.0000 ( 11389 PWs)   bands (ev):

   -29.3550 -29.2710 -29.2587 -29.2442 -29.2342 -29.2094 -29.2031 -29.1761
   -29.1634 -29.1003  -9.6672  -8.8700  -4.2387  -2.9157  -2.3379   0.7935
     2.5239   2.9670   5.8273   6.0373

     occupation numbers 
     1.0000   1.0000   1.0000   1.0000   1.0000   1.0000   1.0000   1.0000
     1.0000   1.0000   1.0000   1.0000   1.0000   1.0000   1.0000   0.0000
     0.0000   0.0000   0.0000   0.0000

          k = 0.3333 0.5774 0.0000 ( 11424 PWs)   bands (ev):

   -29.3549 -29.2580 -29.2574 -29.2572 -29.2222 -29.2220 -29.2026 -29.1701
   -29.1699 -29.1007  -9.2599  -9.2596  -4.3541  -2.6206  -2.6205   0.6572
     2.8251   2.8251   5.8615   6.6942

     occupation numbers 
     1.0000   1.0000   1.0000   1.0000   1.0000   1.0000   1.0000   1.0000
     1.0000   1.0000   1.0000   1.0000   1.0000   1.0000   1.0000   0.0000
     0.0000   0.0000   0.0000   0.0000

     highest occupied, lowest unoccupied level (ev):    -0.6673    0.5092

!    total energy              =    -369.92724647 Ry
     estimated scf accuracy    <       0.00000057 Ry

     The total energy is the sum of the following terms:
     one-electron contribution =    -802.33043042 Ry
     hartree contribution      =     406.70120606 Ry
     xc contribution           =     -88.03287443 Ry
     ewald contribution        =     113.76975554 Ry
     DFT-D3 Dispersion         =      -0.03490323 Ry

     convergence has been achieved in   7 iterations

     negative rho (up, down):  2.995E-06 0.000E+00

     Forces acting on atoms (cartesian axes, Ry/au):

     atom    1 type  1   force =     0.00000000    0.00000000   -0.00142522
     atom    2 type  1   force =     0.00000000    0.00000000    0.00142522
     The non-local contrib.  to forces
     atom    1 type  1   force =     0.00000000    0.00000000    0.51566680
     atom    2 type  1   force =     0.00000000    0.00000000   -0.51584705
     The ionic contribution  to forces
     atom    1 type  1   force =    -0.00000001    0.00000001  -35.86237256
     atom    2 type  1   force =     0.00000001   -0.00000001   35.86237256
     The local contribution  to forces
     atom    1 type  1   force =     0.00000000   -0.00000000   35.34542675
     atom    2 type  1   force =     0.00000040   -0.00000023  -35.34500185
     The core correction contribution to forces
     atom    1 type  1   force =    -0.00000000    0.00000000    0.00095199
     atom    2 type  1   force =     0.00000004   -0.00000002   -0.00087551
     The Hubbard contrib.    to forces
     atom    1 type  1   force =     0.00000000    0.00000000    0.00000000
     atom    2 type  1   force =     0.00000000    0.00000000    0.00000000
     The SCF correction term to forces
     atom    1 type  1   force =     0.00000000   -0.00000000   -0.00000000
     atom    2 type  1   force =    -0.00000000    0.00000000    0.00220996

     DFT-D3 dispersion contribution to forces:
     atom    1 type  1   force =     0.00000000   -0.00000000    0.00125565
     atom    2 type  1   force =    -0.00000000    0.00000000   -0.00125565

     Total force =     0.001425     Total SCF correction =     0.002210

     DFT-D3 dispersion Force =     0.001776
     SCF correction compared to forces is large: reduce conv_thr to get better values


     Computing stress (Cartesian axis) and pressure


     negative rho (up, down):  2.995E-06 0.000E+00
          total   stress  (Ry/bohr**3)                   (kbar)     P=       -0.91
  -0.00000604  -0.00000000   0.00000000           -0.89       -0.00        0.00
   0.00000000  -0.00000604  -0.00000000            0.00       -0.89       -0.00
   0.00000000   0.00000000  -0.00000652            0.00        0.00       -0.96

     kinetic stress (kbar)   4812.50      0.00      0.00
                                0.00   4812.50      0.00
                                0.00      0.00   4835.66

     local   stress (kbar) -62921.55      0.00     -0.00
                                0.00 -62921.55      0.00
                               -0.00      0.00  63595.99

     nonloc. stress (kbar)     27.99      0.00      0.00
                                0.00     27.99      0.00
                                0.00      0.00     46.65

     hartree stress (kbar)  34165.62      0.00     -0.00
                                0.00  34165.62     -0.00
                               -0.00     -0.00 -27070.57

     exc-cor stress (kbar)   2957.91     -0.00      0.00
                               -0.00   2957.91     -0.00
                                0.00     -0.00   2956.64

     corecor stress (kbar)  -4661.89     -0.00      0.00
                               -0.00  -4661.89     -0.00
                                0.00     -0.00  -4662.36

     ewald   stress (kbar)  25622.34     -0.00      0.00
                               -0.00  25622.34     -0.00
                                0.00     -0.00 -39702.51

     hubbard stress (kbar)      0.00      0.00      0.00
                                0.00      0.00      0.00
                                0.00      0.00      0.00

     DFT-D   stress (kbar)     -3.80     -0.00     -0.00
                               -0.00     -3.80      0.00
                               -0.00      0.00     -0.45

     XDM     stress (kbar)      0.00      0.00      0.00
                                0.00      0.00      0.00
                                0.00      0.00      0.00

     dft-nl  stress (kbar)      0.00      0.00      0.00
                                0.00      0.00      0.00
                                0.00      0.00      0.00

     TS-vdW  stress (kbar)      0.00      0.00      0.00
                                0.00      0.00      0.00
                                0.00      0.00      0.00



     BFGS Geometry Optimization
     Energy error            =      0.0E+00
     Gradient error          =      1.4E-03
     Cell gradient error     =      6.0E-06


     number of scf cycles    =   1
     number of bfgs steps    =   0

     enthalpy new            =    -369.9272464728 Ry

     new trust radius        =       0.0014252196 bohr
     new conv_thr            =       0.0000010000 Ry

     new unit-cell volume =   1449.55792 a.u.^3 (   214.80232 Ang^3 )
     density =      0.18570 g/cm^3

CELL_PARAMETERS (alat=  7.68551615)
   0.999848888   0.000000000   0.000000000
  -0.499924444   0.865894537   0.000000000
   0.000000000   0.000000000   3.688222277

ATOMIC_POSITIONS (crystal)
Sb            0.0000000000        0.0000000000        0.5000000000    0   0   0
Sb            0.3333333330        0.6666666670        0.6101502796



     Writing output data file ./tmp/Sb.save/
     NEW-OLD atomic charge density approx. for the potential

     negative rho (up, down):  1.050E-05 0.000E+00
     extrapolated charge   29.99154, renormalised to   30.00000

     total cpu time spent up to now is       25.1 secs

     Self-consistent Calculation

     iteration #  1     ecut=    60.00 Ry     beta= 0.70
     Davidson diagonalization with overlap
     ethr =  1.00E-06,  avg # of iterations =  3.5

     negative rho (up, down):  4.683E-06 0.000E+00

     total cpu time spent up to now is       28.2 secs

     total energy              =    -369.92719037 Ry
     estimated scf accuracy    <       0.00004053 Ry

     iteration #  2     ecut=    60.00 Ry     beta= 0.70
     Davidson diagonalization with overlap
     ethr =  1.35E-07,  avg # of iterations =  4.0

     negative rho (up, down):  3.510E-06 0.000E+00

     total cpu time spent up to now is       31.1 secs

     total energy              =    -369.92723700 Ry
     estimated scf accuracy    <       0.00011633 Ry

     iteration #  3     ecut=    60.00 Ry     beta= 0.70
     Davidson diagonalization with overlap
     ethr =  1.35E-07,  avg # of iterations =  2.0

     negative rho (up, down):  3.281E-06 0.000E+00

     total cpu time spent up to now is       33.3 secs

     total energy              =    -369.92724752 Ry
     estimated scf accuracy    <       0.00003817 Ry

     iteration #  4     ecut=    60.00 Ry     beta= 0.70
     Davidson diagonalization with overlap
     ethr =  1.27E-07,  avg # of iterations =  1.3

     negative rho (up, down):  3.184E-06 0.000E+00

     total cpu time spent up to now is       35.3 secs

     total energy              =    -369.92724813 Ry
     estimated scf accuracy    <       0.00000843 Ry

     iteration #  5     ecut=    60.00 Ry     beta= 0.70
     Davidson diagonalization with overlap
     ethr =  2.81E-08,  avg # of iterations =  1.1

     negative rho (up, down):  3.143E-06 0.000E+00

     total cpu time spent up to now is       37.3 secs

     total energy              =    -369.92724752 Ry
     estimated scf accuracy    <       0.00000326 Ry

     iteration #  6     ecut=    60.00 Ry     beta= 0.70
     Davidson diagonalization with overlap
     ethr =  1.09E-08,  avg # of iterations =  1.3

     negative rho (up, down):  3.068E-06 0.000E+00

     total cpu time spent up to now is       39.3 secs

     total energy              =    -369.92724697 Ry
     estimated scf accuracy    <       0.00000124 Ry

     iteration #  7     ecut=    60.00 Ry     beta= 0.70
     Davidson diagonalization with overlap
     ethr =  4.13E-09,  avg # of iterations =  2.0

     negative rho (up, down):  3.057E-06 0.000E+00

     total cpu time spent up to now is       41.4 secs

     End of self-consistent calculation

          k = 0.0000 0.0000 0.0000 ( 11409 PWs)   bands (ev):

   -29.3632 -29.3632 -29.2877 -29.2877 -29.2458 -29.1770 -29.1770 -29.1401
   -29.0933 -29.0933 -12.1701  -7.1546  -1.4806  -0.6634  -0.6634   0.9981
     2.1235   2.1235   3.5746   3.6124

     occupation numbers 
     1.0000   1.0000   1.0000   1.0000   1.0000   1.0000   1.0000   1.0000
     1.0000   1.0000   1.0000   1.0000   1.0000   1.0000   1.0000   0.0000
     0.0000   0.0000   0.0000   0.0000

          k = 0.0000 0.0770 0.0000 ( 11411 PWs)   bands (ev):

   -29.3628 -29.3608 -29.2874 -29.2862 -29.2451 -29.1781 -29.1771 -29.1407
   -29.0960 -29.0934 -12.1210  -7.1475  -1.4567  -1.1955  -0.7818   1.3917
     2.0247   2.2355   3.6313   3.6855

     occupation numbers 
     1.0000   1.0000   1.0000   1.0000   1.0000   1.0000   1.0000   1.0000
     1.0000   1.0000   1.0000   1.0000   1.0000   1.0000   1.0000   0.0000
     0.0000   0.0000   0.0000   0.0000

          k = 0.0000 0.1540 0.0000 ( 11435 PWs)   bands (ev):

   -29.3618 -29.3538 -29.2867 -29.2819 -29.2429 -29.1811 -29.1776 -29.1424
   -29.1042 -29.0938 -11.9747  -7.1395  -2.0986  -1.3970  -1.0683   1.3005
     2.4076   2.4827   3.7793   3.8990

     occupation numbers 
     1.0000   1.0000   1.0000   1.0000   1.0000   1.0000   1.0000   1.0000
     1.0000   1.0000   1.0000   1.0000   1.0000   1.0000   1.0000   0.0000
     0.0000   0.0000   0.0000   0.0000

          k = 0.0000 0.2310 0.0000 ( 11427 PWs)   bands (ev):

   -29.3604 -29.3428 -29.2856 -29.2750 -29.2389 -29.1860 -29.1786 -29.1453
   -29.1168 -29.0944 -11.7344  -7.1749  -2.9379  -1.4093  -1.3477   0.8622
     2.7110   2.7985   3.9777   4.1534

     occupation numbers 
     1.0000   1.0000   1.0000   1.0000   1.0000   1.0000   1.0000   1.0000
     1.0000   1.0000   1.0000   1.0000   1.0000   1.0000   1.0000   0.0000
     0.0000   0.0000   0.0000   0.0000

          k = 0.0000 0.3080 0.0000 ( 11408 PWs)   bands (ev):

   -29.3586 -29.3286 -29.2840 -29.2660 -29.2333 -29.1927 -29.1807 -29.1499
   -29.1320 -29.0951 -11.4072  -7.3286  -3.5543  -1.7308  -1.4045   0.5545
     2.7014   2.8359   4.2438   4.4297

     occupation numbers 
     1.0000   1.0000   1.0000   1.0000   1.0000   1.0000   1.0000   1.0000
     1.0000   1.0000   1.0000   1.0000   1.0000   1.0000   1.0000   0.0000
     0.0000   0.0000   0.0000   0.0000

          k = 0.0000 0.3850 0.0000 ( 11358 PWs)   bands (ev):

   -29.3569 -29.3138 -29.2804 -29.2556 -29.2268 -29.2010 -29.1846 -29.1600
   -29.1435 -29.0958 -11.0083  -7.6587  -3.8604  -1.9937  -1.6479   0.5104
     2.3277   2.8657   4.6009   4.7167

     occupation numbers 
     1.0000   1.0000   1.0000   1.0000   1.0000   1.0000   1.0000   1.0000
     1.0000   1.0000   1.0000   1.0000   1.0000   1.0000   1.0000   0.0000
     0.0000   0.0000   0.0000   0.0000

          k = 0.0000 0.4620 0.0000 ( 11360 PWs)   bands (ev):

   -29.3556 -29.3031 -29.2718 -29.2442 -29.2213 -29.2106 -29.1902 -29.1752
   -29.1480 -29.0964 -10.5760  -8.1137  -3.8940  -2.1776  -1.9980   0.6737
     1.9434   2.8501   4.4913   5.2455

     occupation numbers 
     1.0000   1.0000   1.0000   1.0000   1.0000   1.0000   1.0000   1.0000
     1.0000   1.0000   1.0000   1.0000   1.0000   1.0000   1.0000   0.0000
     0.0000   0.0000   0.0000   0.0000

          k = 0.0000 0.5389 0.0000 ( 11336 PWs)   bands (ev):

   -29.3549 -29.2990 -29.2602 -29.2326 -29.2213 -29.2212 -29.1932 -29.1866
   -29.1495 -29.0967 -10.2269  -8.5009  -3.8150  -2.2718  -2.2680   0.8793
     1.6627   2.8316   4.3108   5.8725

     occupation numbers 
     1.0000   1.0000   1.0000   1.0000   1.0000   1.0000   1.0000   1.0000
     1.0000   1.0000   1.0000   1.0000   1.0000   1.0000   1.0000   0.0000
     0.0000   0.0000   0.0000   0.0000

          k = 0.0667 0.1155 0.0000 ( 11433 PWs)   bands (ev):

   -29.3622 -29.3561 -29.2868 -29.2834 -29.2436 -29.1802 -29.1773 -29.1419
   -29.1015 -29.0937 -12.0233  -7.1398  -1.8276  -1.4154  -1.0388   1.7465
     1.7860   2.5640   3.7375   3.8282

     occupation numbers 
     1.0000   1.0000   1.0000   1.0000   1.0000   1.0000   1.0000   1.0000
     1.0000   1.0000   1.0000   1.0000   1.0000   1.0000   1.0000   0.0000
     0.0000   0.0000   0.0000   0.0000

          k = 0.0667 0.1925 0.0000 ( 11448 PWs)   bands (ev):

   -29.3610 -29.3470 -29.2856 -29.2782 -29.2404 -29.1843 -29.1778 -29.1442
   -29.1119 -29.0942 -11.8298  -7.1522  -2.6041  -1.4674  -1.3324   1.3437
     2.1972   2.9170   3.9250   4.0625

     occupation numbers 
     1.0000   1.0000   1.0000   1.0000   1.0000   1.0000   1.0000   1.0000
     1.0000   1.0000   1.0000   1.0000   1.0000   1.0000   1.0000   0.0000
     0.0000   0.0000   0.0000   0.0000

          k = 0.0667 0.2695 0.0000 ( 11409 PWs)   bands (ev):

   -29.3594 -29.3343 -29.2841 -29.2707 -29.2354 -29.1904 -29.1790 -29.1478
   -29.1260 -29.0949 -11.5455  -7.2446  -3.2824  -1.8542  -1.3261   0.9487
     2.5050   2.9531   4.1455   4.3181

     occupation numbers 
     1.0000   1.0000   1.0000   1.0000   1.0000   1.0000   1.0000   1.0000
     1.0000   1.0000   1.0000   1.0000   1.0000   1.0000   1.0000   0.0000
     0.0000   0.0000   0.0000   0.0000

          k = 0.0667 0.3465 0.0000 ( 11373 PWs)   bands (ev):

   -29.3577 -29.3193 -29.2818 -29.2614 -29.2290 -29.1983 -29.1815 -29.1547
   -29.1401 -29.0957 -11.1804  -7.4895  -3.7180  -2.1807  -1.4502   0.7474
     2.6327   2.6412   4.4757   4.6378

     occupation numbers 
     1.0000   1.0000   1.0000   1.0000   1.0000   1.0000   1.0000   1.0000
     1.0000   1.0000   1.0000   1.0000   1.0000   1.0000   1.0000   0.0000
     0.0000   0.0000   0.0000   0.0000

          k = 0.0667 0.4235 0.0000 ( 11366 PWs)   bands (ev):

   -29.3562 -29.3057 -29.2762 -29.2509 -29.2223 -29.2075 -29.1858 -29.1686
   -29.1474 -29.0964 -10.7577  -7.8964  -3.8729  -2.4058  -1.7440   0.7994
     2.2098   2.6788   4.6701   5.0166

     occupation numbers 
     1.0000   1.0000   1.0000   1.0000   1.0000   1.0000   1.0000   1.0000
     1.0000   1.0000   1.0000   1.0000   1.0000   1.0000   1.0000   0.0000
     0.0000   0.0000   0.0000   0.0000

          k = 0.0667 0.5004 0.0000 ( 11364 PWs)   bands (ev):

   -29.3552 -29.2983 -29.2650 -29.2400 -29.2206 -29.2158 -29.1912 -29.1824
   -29.1500 -29.0969 -10.3417  -8.3489  -3.8453  -2.5003  -2.0950   1.0222
     1.8137   2.6943   4.4603   5.6131

     occupation numbers 
     1.0000   1.0000   1.0000   1.0000   1.0000   1.0000   1.0000   1.0000
     1.0000   1.0000   1.0000   1.0000   1.0000   1.0000   1.0000   0.0000
     0.0000   0.0000   0.0000   0.0000

          k = 0.0667 0.5774 0.0000 ( 11330 PWs)   bands (ev):

   -29.3548 -29.2966 -29.2569 -29.2306 -29.2288 -29.2184 -29.1909 -29.1900
   -29.1508 -29.0971 -10.1309  -8.5806  -3.8042  -2.4737  -2.3031   1.2214
     1.5689   2.7017   4.3470   6.2269

     occupation numbers 
     1.0000   1.0000   1.0000   1.0000   1.0000   1.0000   1.0000   1.0000
     1.0000   1.0000   1.0000   1.0000   1.0000   1.0000   1.0000   0.0000
     0.0000   0.0000   0.0000   0.0000

          k = 0.1334 0.2310 0.0000 ( 11383 PWs)   bands (ev):

   -29.3597 -29.3361 -29.2837 -29.2729 -29.2360 -29.1899 -29.1781 -29.1472
   -29.1238 -29.0949 -11.5920  -7.2193  -3.1073  -2.0344  -1.3082   1.4508
     2.0721   3.0920   4.1678   4.2590

     occupation numbers 
     1.0000   1.0000   1.0000   1.0000   1.0000   1.0000   1.0000   1.0000
     1.0000   1.0000   1.0000   1.0000   1.0000   1.0000   1.0000   0.0000
     0.0000   0.0000   0.0000   0.0000

          k = 0.1334 0.3080 0.0000 ( 11363 PWs)   bands (ev):

   -29.3582 -29.3220 -29.2813 -29.2661 -29.2297 -29.1976 -29.1789 -29.1525
   -29.1377 -29.0959 -11.2679  -7.4025  -3.5023  -2.5351  -1.3547   1.2799
     2.1615   3.0221   4.4391   4.5717

     occupation numbers 
     1.0000   1.0000   1.0000   1.0000   1.0000   1.0000   1.0000   1.0000
     1.0000   1.0000   1.0000   1.0000   1.0000   1.0000   1.0000   0.0000
     0.0000   0.0000   0.0000   0.0000

          k = 0.1334 0.3850 0.0000 ( 11362 PWs)   bands (ev):

   -29.3567 -29.3068 -29.2777 -29.2575 -29.2223 -29.2069 -29.1810 -29.1640
   -29.1476 -29.0969 -10.8719  -7.7397  -3.7290  -2.8544  -1.5537   1.1780
     2.1462   2.8113   4.7795   4.9537

     occupation numbers 
     1.0000   1.0000   1.0000   1.0000   1.0000   1.0000   1.0000   1.0000
     1.0000   1.0000   1.0000   1.0000   1.0000   1.0000   1.0000   0.0000
     0.0000   0.0000   0.0000   0.0000

          k = 0.1334 0.4620 0.0000 ( 11346 PWs)   bands (ev):

   -29.3556 -29.2954 -29.2696 -29.2477 -29.2192 -29.2142 -29.1857 -29.1788
   -29.1519 -29.0976 -10.4389  -8.1841  -3.8227  -2.9455  -1.8905   1.2369
     2.0363   2.6226   4.7823   5.4449

     occupation numbers 
     1.0000   1.0000   1.0000   1.0000   1.0000   1.0000   1.0000   1.0000
     1.0000   1.0000   1.0000   1.0000   1.0000   1.0000   1.0000   0.0000
     0.0000   0.0000   0.0000   0.0000

          k = 0.1334 0.5389 0.0000 ( 11367 PWs)   bands (ev):

   -29.3549 -29.2911 -29.2571 -29.2386 -29.2296 -29.2132 -29.1925 -29.1858
   -29.1537 -29.0981 -10.0801  -8.5688  -3.8601  -2.8408  -2.2276   1.3552
     1.9155   2.5308   4.5942   6.0920

     occupation numbers 
     1.0000   1.0000   1.0000   1.0000   1.0000   1.0000   1.0000   1.0000
     1.0000   1.0000   1.0000   1.0000   1.0000   1.0000   1.0000   0.0000
     0.0000   0.0000   0.0000   0.0000

          k = 0.2000 0.3465 0.0000 ( 11367 PWs)   bands (ev):

   -29.3570 -29.3071 -29.2777 -29.2605 -29.2222 -29.2069 -29.1790 -29.1624
   -29.1479 -29.0971 -10.9108  -7.6823  -3.5591  -3.1512  -1.4868   1.5428
     1.7529   3.1482   4.8067   4.9229

     occupation numbers 
     1.0000   1.0000   1.0000   1.0000   1.0000   1.0000   1.0000   1.0000
     1.0000   1.0000   1.0000   1.0000   1.0000   1.0000   1.0000   0.0000
     0.0000   0.0000   0.0000   0.0000

          k = 0.2000 0.4235 0.0000 ( 11371 PWs)   bands (ev):

   -29.3558 -29.2921 -29.2730 -29.2527 -29.2181 -29.2143 -29.1803 -29.1775
   -29.1538 -29.0982 -10.4933  -8.0762  -3.6957  -3.3552  -1.7487   1.3538
     1.8425   3.1047   5.1442   5.3881

     occupation numbers 
     1.0000   1.0000   1.0000   1.0000   1.0000   1.0000   1.0000   1.0000
     1.0000   1.0000   1.0000   1.0000   1.0000   1.0000   1.0000   0.0000
     0.0000   0.0000   0.0000   0.0000

          k = 0.2000 0.5004 0.0000 ( 11362 PWs)   bands (ev):

   -29.3550 -29.2835 -29.2626 -29.2434 -29.2302 -29.2091 -29.1937 -29.1806
   -29.1573 -29.0990 -10.0675  -8.5092  -3.9600  -3.1216  -2.0939   1.1269
     2.1630   2.8672   5.1100   5.9641

     occupation numbers 
     1.0000   1.0000   1.0000   1.0000   1.0000   1.0000   1.0000   1.0000
     1.0000   1.0000   1.0000   1.0000   1.0000   1.0000   1.0000   0.0000
     0.0000   0.0000   0.0000   0.0000

          k = 0.2000 0.5774 0.0000 ( 11356 PWs)   bands (ev):

   -29.3548 -29.2817 -29.2514 -29.2429 -29.2350 -29.2105 -29.1984 -29.1815
   -29.1586 -29.0993  -9.8324  -8.7512  -4.0524  -2.9346  -2.3171   1.0507
     2.5069   2.5468   5.0314   6.3479

     occupation numbers 
     1.0000   1.0000   1.0000   1.0000   1.0000   1.0000   1.0000   1.0000
     1.0000   1.0000   1.0000   1.0000   1.0000   1.0000   1.0000   0.0000
     0.0000   0.0000   0.0000   0.0000

          k = 0.2667 0.4620 0.0000 ( 11386 PWs)   bands (ev):

   -29.3551 -29.2773 -29.2687 -29.2447 -29.2303 -29.2076 -29.1940 -29.1780
   -29.1593 -29.0995 -10.0674  -8.4770  -4.0135  -3.2165  -2.0276   1.0182
     2.1448   3.1707   5.7233   5.8722

     occupation numbers 
     1.0000   1.0000   1.0000   1.0000   1.0000   1.0000   1.0000   1.0000
     1.0000   1.0000   1.0000   1.0000   1.0000   1.0000   1.0000   0.0000
     0.0000   0.0000   0.0000   0.0000

          k = 0.2667 0.5389 0.0000 ( 11389 PWs)   bands (ev):

   -29.3547 -29.2706 -29.2585 -29.2439 -29.2341 -29.2093 -29.2028 -29.1761
   -29.1635 -29.1002  -9.6653  -8.8682  -4.2369  -2.9154  -2.3378   0.7929
     2.5237   2.9676   5.8309   6.0401

     occupation numbers 
     1.0000   1.0000   1.0000   1.0000   1.0000   1.0000   1.0000   1.0000
     1.0000   1.0000   1.0000   1.0000   1.0000   1.0000   1.0000   0.0000
     0.0000   0.0000   0.0000   0.0000

          k = 0.3334 0.5774 0.0000 ( 11424 PWs)   bands (ev):

   -29.3546 -29.2578 -29.2570 -29.2570 -29.2220 -29.2220 -29.2023 -29.1701
   -29.1701 -29.1006  -9.2579  -9.2579  -4.3523  -2.6204  -2.6204   0.6565
     2.8250   2.8250   5.8638   6.6990

     occupation numbers 
     1.0000   1.0000   1.0000   1.0000   1.0000   1.0000   1.0000   1.0000
     1.0000   1.0000   1.0000   1.0000   1.0000   1.0000   1.0000   0.0000
     0.0000   0.0000   0.0000   0.0000

     highest occupied, lowest unoccupied level (ev):    -0.6634    0.5104

!    total energy              =    -369.92724713 Ry
     estimated scf accuracy    <       0.00000003 Ry

     The total energy is the sum of the following terms:
     one-electron contribution =    -802.38848216 Ry
     hartree contribution      =     406.73425459 Ry
     xc contribution           =     -88.03307716 Ry
     ewald contribution        =     113.79497036 Ry
     DFT-D3 Dispersion         =      -0.03491276 Ry

     convergence has been achieved in   7 iterations

     negative rho (up, down):  3.057E-06 0.000E+00

     Forces acting on atoms (cartesian axes, Ry/au):

     atom    1 type  1   force =     0.00000000    0.00000000   -0.00002330
     atom    2 type  1   force =     0.00000000   -0.00000000    0.00002330
     The non-local contrib.  to forces
     atom    1 type  1   force =     0.00000000    0.00000000    0.51532736
     atom    2 type  1   force =     0.00000000   -0.00000000   -0.51539926
     The ionic contribution  to forces
     atom    1 type  1   force =    -0.00000001    0.00000001  -35.87901186
     atom    2 type  1   force =     0.00000001   -0.00000001   35.87901186
     The local contribution  to forces
     atom    1 type  1   force =    -0.00000000   -0.00000000   35.36095425
     atom    2 type  1   force =     0.00000040   -0.00000023  -35.36081663
     The core correction contribution to forces
     atom    1 type  1   force =    -0.00000000    0.00000000    0.00077341
     atom    2 type  1   force =     0.00000004   -0.00000002   -0.00077712
     The Hubbard contrib.    to forces
     atom    1 type  1   force =     0.00000000    0.00000000    0.00000000
     atom    2 type  1   force =     0.00000000    0.00000000    0.00000000
     The SCF correction term to forces
     atom    1 type  1   force =    -0.00000000    0.00000000    0.00000000
     atom    2 type  1   force =     0.00000000   -0.00000000   -0.00078952

     DFT-D3 dispersion contribution to forces:
     atom    1 type  1   force =     0.00000000   -0.00000000    0.00125678
     atom    2 type  1   force =    -0.00000000    0.00000000   -0.00125678

     Total force =     0.000023     Total SCF correction =     0.000790

     DFT-D3 dispersion Force =     0.001777
     SCF correction compared to forces is large: reduce conv_thr to get better values


     Computing stress (Cartesian axis) and pressure


     negative rho (up, down):  3.057E-06 0.000E+00
          total   stress  (Ry/bohr**3)                   (kbar)     P=       -0.46
  -0.00000282  -0.00000000   0.00000000           -0.41       -0.00        0.00
   0.00000000  -0.00000282   0.00000000            0.00       -0.41        0.00
   0.00000000   0.00000000  -0.00000371            0.00        0.00       -0.55

     kinetic stress (kbar)   4814.06     -0.00      0.00
                               -0.00   4814.06     -0.00
                                0.00      0.00   4837.08

     local   stress (kbar) -62947.16      0.00     -0.00
                                0.00 -62947.16      0.00
                               -0.00      0.00  63622.48

     nonloc. stress (kbar)     28.40     -0.00      0.00
                               -0.00     28.40      0.00
                                0.00     -0.00     47.08

     hartree stress (kbar)  34179.62      0.00     -0.00
                                0.00  34179.62     -0.00
                               -0.00     -0.00 -27082.74

     exc-cor stress (kbar)   2958.80     -0.00      0.00
                               -0.00   2958.80     -0.00
                                0.00     -0.00   2957.53

     corecor stress (kbar)  -4663.31     -0.00      0.00
                               -0.00  -4663.31     -0.00
                                0.00     -0.00  -4663.77

     ewald   stress (kbar)  25632.98     -0.00      0.00
                               -0.00  25632.98     -0.00
                                0.00     -0.00 -39717.73

     hubbard stress (kbar)      0.00      0.00      0.00
                                0.00      0.00      0.00
                                0.00      0.00      0.00

     DFT-D   stress (kbar)     -3.80     -0.00     -0.00
                               -0.00     -3.80      0.00
                               -0.00      0.00     -0.46

     XDM     stress (kbar)      0.00      0.00      0.00
                                0.00      0.00      0.00
                                0.00      0.00      0.00

     dft-nl  stress (kbar)      0.00      0.00      0.00
                                0.00      0.00      0.00
                                0.00      0.00      0.00

     TS-vdW  stress (kbar)      0.00      0.00      0.00
                                0.00      0.00      0.00
                                0.00      0.00      0.00


     Energy error            =      6.5E-07
     Gradient error          =      2.3E-05
     Cell gradient error     =      2.8E-06


     number of scf cycles    =   2
     number of bfgs steps    =   1

     enthalpy old            =    -369.9272464728 Ry
     enthalpy new            =    -369.9272471269 Ry

     CASE: enthalpy_new < enthalpy_old

     new trust radius        =       0.0008432730 bohr
     new conv_thr            =       0.0000000100 Ry

     new unit-cell volume =   1449.23688 a.u.^3 (   214.75475 Ang^3 )
     density =      0.18574 g/cm^3

CELL_PARAMETERS (alat=  7.68551615)
   0.999738161  -0.000000000   0.000000000
  -0.499869081   0.865798645   0.000000000
   0.000000000   0.000000000   3.688222277

ATOMIC_POSITIONS (crystal)
Sb            0.0000000000        0.0000000000        0.5000000000    0   0   0
Sb            0.3333333330        0.6666666670        0.6101561067



     Writing output data file ./tmp/Sb.save/
     NEW-OLD atomic charge density approx. for the potential

     negative rho (up, down):  4.968E-06 0.000E+00
     extrapolated charge   29.99380, renormalised to   30.00000

     total cpu time spent up to now is       47.2 secs

     Self-consistent Calculation

     iteration #  1     ecut=    60.00 Ry     beta= 0.70
     Davidson diagonalization with overlap
     ethr =  1.00E-06,  avg # of iterations =  2.9

     Threshold (ethr) on eigenvalues was too large:
     Diagonalizing with lowered threshold

     Davidson diagonalization with overlap
     ethr =  7.08E-08,  avg # of iterations =  1.0

     negative rho (up, down):  3.815E-06 0.000E+00

     total cpu time spent up to now is       51.8 secs

     total energy              =    -369.92721666 Ry
     estimated scf accuracy    <       0.00002145 Ry

     iteration #  2     ecut=    60.00 Ry     beta= 0.70
     Davidson diagonalization with overlap
     ethr =  7.15E-08,  avg # of iterations =  3.7

     negative rho (up, down):  3.357E-06 0.000E+00

     total cpu time spent up to now is       54.7 secs

     total energy              =    -369.92724578 Ry
     estimated scf accuracy    <       0.00004432 Ry

     iteration #  3     ecut=    60.00 Ry     beta= 0.70
     Davidson diagonalization with overlap
     ethr =  7.15E-08,  avg # of iterations =  2.0

     negative rho (up, down):  3.234E-06 0.000E+00

     total cpu time spent up to now is       56.9 secs

     total energy              =    -369.92724789 Ry
     estimated scf accuracy    <       0.00000628 Ry

     iteration #  4     ecut=    60.00 Ry     beta= 0.70
     Davidson diagonalization with overlap
     ethr =  2.09E-08,  avg # of iterations =  1.2

     negative rho (up, down):  3.193E-06 0.000E+00

     total cpu time spent up to now is       58.9 secs

     total energy              =    -369.92724775 Ry
     estimated scf accuracy    <       0.00000273 Ry

     iteration #  5     ecut=    60.00 Ry     beta= 0.70
     Davidson diagonalization with overlap
     ethr =  9.10E-09,  avg # of iterations =  1.0

     negative rho (up, down):  3.169E-06 0.000E+00

     total cpu time spent up to now is       60.9 secs

     total energy              =    -369.92724756 Ry
     estimated scf accuracy    <       0.00000177 Ry

     iteration #  6     ecut=    60.00 Ry     beta= 0.70
     Davidson diagonalization with overlap
     ethr =  5.89E-09,  avg # of iterations =  1.0

     negative rho (up, down):  3.127E-06 0.000E+00

     total cpu time spent up to now is       62.9 secs

     total energy              =    -369.92724702 Ry
     estimated scf accuracy    <       0.00000122 Ry

     iteration #  7     ecut=    60.00 Ry     beta= 0.70
     Davidson diagonalization with overlap
     ethr =  4.08E-09,  avg # of iterations =  2.0

     negative rho (up, down):  3.118E-06 0.000E+00

     total cpu time spent up to now is       65.2 secs

     total energy              =    -369.92724710 Ry
     estimated scf accuracy    <       0.00000012 Ry

     iteration #  8     ecut=    60.00 Ry     beta= 0.70
     Davidson diagonalization with overlap
     ethr =  4.06E-10,  avg # of iterations =  2.0

     negative rho (up, down):  3.110E-06 0.000E+00

     total cpu time spent up to now is       67.4 secs

     total energy              =    -369.92724710 Ry
     estimated scf accuracy    <       0.00000003 Ry

     iteration #  9     ecut=    60.00 Ry     beta= 0.70
     Davidson diagonalization with overlap
     ethr =  9.13E-11,  avg # of iterations =  2.0

     negative rho (up, down):  3.103E-06 0.000E+00

     total cpu time spent up to now is       69.7 secs

     End of self-consistent calculation

          k = 0.0000 0.0000 0.0000 ( 11409 PWs)   bands (ev):

   -29.3632 -29.3632 -29.2877 -29.2877 -29.2458 -29.1769 -29.1769 -29.1400
   -29.0931 -29.0931 -12.1709  -7.1546  -1.4808  -0.6621  -0.6621   1.0002
     2.1250   2.1250   3.5754   3.6131

     occupation numbers 
     1.0000   1.0000   1.0000   1.0000   1.0000   1.0000   1.0000   1.0000
     1.0000   1.0000   1.0000   1.0000   1.0000   1.0000   1.0000   0.0000
     0.0000   0.0000   0.0000   0.0000

          k = 0.0000 0.0770 0.0000 ( 11411 PWs)   bands (ev):

   -29.3628 -29.3608 -29.2874 -29.2862 -29.2451 -29.1780 -29.1771 -29.1406
   -29.0959 -29.0932 -12.1218  -7.1474  -1.4569  -1.1943  -0.7806   1.3938
     2.0261   2.2370   3.6321   3.6862

     occupation numbers 
     1.0000   1.0000   1.0000   1.0000   1.0000   1.0000   1.0000   1.0000
     1.0000   1.0000   1.0000   1.0000   1.0000   1.0000   1.0000   0.0000
     0.0000   0.0000   0.0000   0.0000

          k = 0.0000 0.1540 0.0000 ( 11435 PWs)   bands (ev):

   -29.3618 -29.3538 -29.2866 -29.2818 -29.2428 -29.1810 -29.1775 -29.1423
   -29.1040 -29.0936 -11.9755  -7.1394  -2.0979  -1.3971  -1.0671   1.3018
     2.4095   2.4842   3.7801   3.8999

     occupation numbers 
     1.0000   1.0000   1.0000   1.0000   1.0000   1.0000   1.0000   1.0000
     1.0000   1.0000   1.0000   1.0000   1.0000   1.0000   1.0000   0.0000
     0.0000   0.0000   0.0000   0.0000

          k = 0.0000 0.2310 0.0000 ( 11427 PWs)   bands (ev):

   -29.3604 -29.3428 -29.2855 -29.2749 -29.2389 -29.1859 -29.1785 -29.1452
   -29.1167 -29.0942 -11.7351  -7.1746  -2.9376  -1.4083  -1.3476   0.8631
     2.7124   2.8001   3.9784   4.1543

     occupation numbers 
     1.0000   1.0000   1.0000   1.0000   1.0000   1.0000   1.0000   1.0000
     1.0000   1.0000   1.0000   1.0000   1.0000   1.0000   1.0000   0.0000
     0.0000   0.0000   0.0000   0.0000

          k = 0.0000 0.3080 0.0000 ( 11408 PWs)   bands (ev):

   -29.3586 -29.3286 -29.2839 -29.2660 -29.2333 -29.1926 -29.1806 -29.1498
   -29.1319 -29.0949 -11.4078  -7.3281  -3.5544  -1.7300  -1.4042   0.5552
     2.7025   2.8372   4.2445   4.4306

     occupation numbers 
     1.0000   1.0000   1.0000   1.0000   1.0000   1.0000   1.0000   1.0000
     1.0000   1.0000   1.0000   1.0000   1.0000   1.0000   1.0000   0.0000
     0.0000   0.0000   0.0000   0.0000

          k = 0.0000 0.3850 0.0000 ( 11358 PWs)   bands (ev):

   -29.3569 -29.3138 -29.2804 -29.2555 -29.2267 -29.2009 -29.1845 -29.1599
   -29.1434 -29.0956 -11.0088  -7.6581  -3.8607  -1.9930  -1.6476   0.5109
     2.3285   2.8670   4.6017   4.7176

     occupation numbers 
     1.0000   1.0000   1.0000   1.0000   1.0000   1.0000   1.0000   1.0000
     1.0000   1.0000   1.0000   1.0000   1.0000   1.0000   1.0000   0.0000
     0.0000   0.0000   0.0000   0.0000

          k = 0.0000 0.4620 0.0000 ( 11360 PWs)   bands (ev):

   -29.3556 -29.3031 -29.2718 -29.2442 -29.2212 -29.2105 -29.1901 -29.1750
   -29.1479 -29.0962 -10.5762  -8.1133  -3.8943  -2.1769  -1.9978   0.6743
     1.9439   2.8512   4.4919   5.2464

     occupation numbers 
     1.0000   1.0000   1.0000   1.0000   1.0000   1.0000   1.0000   1.0000
     1.0000   1.0000   1.0000   1.0000   1.0000   1.0000   1.0000   0.0000
     0.0000   0.0000   0.0000   0.0000

          k = 0.0000 0.5390 0.0000 ( 11336 PWs)   bands (ev):

   -29.3549 -29.2990 -29.2602 -29.2326 -29.2212 -29.2212 -29.1931 -29.1865
   -29.1495 -29.0965 -10.2271  -8.5006  -3.8152  -2.2711  -2.2680   0.8801
     1.6629   2.8327   4.3112   5.8737

     occupation numbers 
     1.0000   1.0000   1.0000   1.0000   1.0000   1.0000   1.0000   1.0000
     1.0000   1.0000   1.0000   1.0000   1.0000   1.0000   1.0000   0.0000
     0.0000   0.0000   0.0000   0.0000

          k = 0.0667 0.1155 0.0000 ( 11433 PWs)   bands (ev):

   -29.3622 -29.3561 -29.2868 -29.2834 -29.2436 -29.1801 -29.1772 -29.1418
   -29.1014 -29.0935 -12.0241  -7.1396  -1.8267  -1.4155  -1.0377   1.7484
     1.7873   2.5657   3.7383   3.8290

     occupation numbers 
     1.0000   1.0000   1.0000   1.0000   1.0000   1.0000   1.0000   1.0000
     1.0000   1.0000   1.0000   1.0000   1.0000   1.0000   1.0000   0.0000
     0.0000   0.0000   0.0000   0.0000

          k = 0.0667 0.1925 0.0000 ( 11448 PWs)   bands (ev):

   -29.3610 -29.3470 -29.2856 -29.2781 -29.2404 -29.1842 -29.1777 -29.1441
   -29.1118 -29.0941 -11.8306  -7.1520  -2.6036  -1.4666  -1.3323   1.3448
     2.1988   2.9186   3.9258   4.0634

     occupation numbers 
     1.0000   1.0000   1.0000   1.0000   1.0000   1.0000   1.0000   1.0000
     1.0000   1.0000   1.0000   1.0000   1.0000   1.0000   1.0000   0.0000
     0.0000   0.0000   0.0000   0.0000

          k = 0.0667 0.2695 0.0000 ( 11409 PWs)   bands (ev):

   -29.3594 -29.3343 -29.2841 -29.2706 -29.2354 -29.1903 -29.1789 -29.1477
   -29.1259 -29.0948 -11.5461  -7.2441  -3.2823  -1.8535  -1.3259   0.9496
     2.5064   2.9545   4.1463   4.3191

     occupation numbers 
     1.0000   1.0000   1.0000   1.0000   1.0000   1.0000   1.0000   1.0000
     1.0000   1.0000   1.0000   1.0000   1.0000   1.0000   1.0000   0.0000
     0.0000   0.0000   0.0000   0.0000

          k = 0.0667 0.3465 0.0000 ( 11373 PWs)   bands (ev):

   -29.3577 -29.3193 -29.2818 -29.2614 -29.2289 -29.1982 -29.1814 -29.1546
   -29.1400 -29.0956 -11.1809  -7.4889  -3.7183  -2.1801  -1.4499   0.7480
     2.6338   2.6423   4.4764   4.6388

     occupation numbers 
     1.0000   1.0000   1.0000   1.0000   1.0000   1.0000   1.0000   1.0000
     1.0000   1.0000   1.0000   1.0000   1.0000   1.0000   1.0000   0.0000
     0.0000   0.0000   0.0000   0.0000

          k = 0.0667 0.4235 0.0000 ( 11366 PWs)   bands (ev):

   -29.3562 -29.3056 -29.2762 -29.2509 -29.2222 -29.2074 -29.1857 -29.1685
   -29.1473 -29.0963 -10.7581  -7.8959  -3.8732  -2.4052  -1.7436   0.7999
     2.2106   2.6799   4.6709   5.0175

     occupation numbers 
     1.0000   1.0000   1.0000   1.0000   1.0000   1.0000   1.0000   1.0000
     1.0000   1.0000   1.0000   1.0000   1.0000   1.0000   1.0000   0.0000
     0.0000   0.0000   0.0000   0.0000

          k = 0.0667 0.5005 0.0000 ( 11364 PWs)   bands (ev):

   -29.3552 -29.2983 -29.2649 -29.2399 -29.2206 -29.2158 -29.1912 -29.1823
   -29.1500 -29.0968 -10.3418  -8.3486  -3.8455  -2.4998  -2.0948   1.0229
     1.8142   2.6953   4.4608   5.6141

     occupation numbers 
     1.0000   1.0000   1.0000   1.0000   1.0000   1.0000   1.0000   1.0000
     1.0000   1.0000   1.0000   1.0000   1.0000   1.0000   1.0000   0.0000
     0.0000   0.0000   0.0000   0.0000

          k = 0.0667 0.5775 0.0000 ( 11330 PWs)   bands (ev):

   -29.3548 -29.2965 -29.2568 -29.2305 -29.2288 -29.2183 -29.1908 -29.1899
   -29.1507 -29.0970 -10.1309  -8.5804  -3.8043  -2.4732  -2.3031   1.2224
     1.5691   2.7027   4.3474   6.2283

     occupation numbers 
     1.0000   1.0000   1.0000   1.0000   1.0000   1.0000   1.0000   1.0000
     1.0000   1.0000   1.0000   1.0000   1.0000   1.0000   1.0000   0.0000
     0.0000   0.0000   0.0000   0.0000

          k = 0.1334 0.2310 0.0000 ( 11383 PWs)   bands (ev):

   -29.3597 -29.3361 -29.2836 -29.2729 -29.2360 -29.1899 -29.1780 -29.1471
   -29.1237 -29.0948 -11.5926  -7.2189  -3.1071  -2.0337  -1.3081   1.4518
     2.0735   3.0935   4.1686   4.2599

     occupation numbers 
     1.0000   1.0000   1.0000   1.0000   1.0000   1.0000   1.0000   1.0000
     1.0000   1.0000   1.0000   1.0000   1.0000   1.0000   1.0000   0.0000
     0.0000   0.0000   0.0000   0.0000

          k = 0.1334 0.3080 0.0000 ( 11363 PWs)   bands (ev):

   -29.3582 -29.3220 -29.2812 -29.2660 -29.2296 -29.1975 -29.1789 -29.1524
   -29.1377 -29.0958 -11.2684  -7.4019  -3.5024  -2.5346  -1.3544   1.2806
     2.1626   3.0236   4.4399   4.5727

     occupation numbers 
     1.0000   1.0000   1.0000   1.0000   1.0000   1.0000   1.0000   1.0000
     1.0000   1.0000   1.0000   1.0000   1.0000   1.0000   1.0000   0.0000
     0.0000   0.0000   0.0000   0.0000

          k = 0.1334 0.3850 0.0000 ( 11362 PWs)   bands (ev):

   -29.3567 -29.3067 -29.2777 -29.2574 -29.2223 -29.2069 -29.1809 -29.1639
   -29.1475 -29.0967 -10.8723  -7.7391  -3.7293  -2.8541  -1.5534   1.1785
     2.1470   2.8127   4.7803   4.9547

     occupation numbers 
     1.0000   1.0000   1.0000   1.0000   1.0000   1.0000   1.0000   1.0000
     1.0000   1.0000   1.0000   1.0000   1.0000   1.0000   1.0000   0.0000
     0.0000   0.0000   0.0000   0.0000

          k = 0.1334 0.4620 0.0000 ( 11346 PWs)   bands (ev):

   -29.3556 -29.2953 -29.2696 -29.2476 -29.2191 -29.2141 -29.1856 -29.1787
   -29.1518 -29.0975 -10.4391  -8.1836  -3.8229  -2.9453  -1.8902   1.2373
     2.0371   2.6237   4.7830   5.4458

     occupation numbers 
     1.0000   1.0000   1.0000   1.0000   1.0000   1.0000   1.0000   1.0000
     1.0000   1.0000   1.0000   1.0000   1.0000   1.0000   1.0000   0.0000
     0.0000   0.0000   0.0000   0.0000

          k = 0.1334 0.5390 0.0000 ( 11367 PWs)   bands (ev):

   -29.3549 -29.2911 -29.2570 -29.2385 -29.2296 -29.2131 -29.1924 -29.1857
   -29.1536 -29.0979 -10.0802  -8.5685  -3.8603  -2.8406  -2.2275   1.3554
     1.9166   2.5316   4.5948   6.0931

     occupation numbers 
     1.0000   1.0000   1.0000   1.0000   1.0000   1.0000   1.0000   1.0000
     1.0000   1.0000   1.0000   1.0000   1.0000   1.0000   1.0000   0.0000
     0.0000   0.0000   0.0000   0.0000

          k = 0.2001 0.3465 0.0000 ( 11367 PWs)   bands (ev):

   -29.3569 -29.3071 -29.2776 -29.2604 -29.2222 -29.2069 -29.1789 -29.1623
   -29.1478 -29.0970 -10.9112  -7.6817  -3.5594  -3.1510  -1.4865   1.5434
     1.7535   3.1498   4.8076   4.9239

     occupation numbers 
     1.0000   1.0000   1.0000   1.0000   1.0000   1.0000   1.0000   1.0000
     1.0000   1.0000   1.0000   1.0000   1.0000   1.0000   1.0000   0.0000
     0.0000   0.0000   0.0000   0.0000

          k = 0.2001 0.4235 0.0000 ( 11371 PWs)   bands (ev):

   -29.3558 -29.2921 -29.2730 -29.2526 -29.2180 -29.2142 -29.1802 -29.1774
   -29.1537 -29.0981 -10.4936  -8.0757  -3.6958  -3.3553  -1.7483   1.3541
     1.8430   3.1062   5.1453   5.3891

     occupation numbers 
     1.0000   1.0000   1.0000   1.0000   1.0000   1.0000   1.0000   1.0000
     1.0000   1.0000   1.0000   1.0000   1.0000   1.0000   1.0000   0.0000
     0.0000   0.0000   0.0000   0.0000

          k = 0.2001 0.5005 0.0000 ( 11362 PWs)   bands (ev):

   -29.3550 -29.2835 -29.2626 -29.2434 -29.2301 -29.2090 -29.1936 -29.1805
   -29.1572 -29.0989 -10.0676  -8.5088  -3.9602  -3.1216  -2.0937   1.1271
     2.1637   2.8685   5.1110   5.9651

     occupation numbers 
     1.0000   1.0000   1.0000   1.0000   1.0000   1.0000   1.0000   1.0000
     1.0000   1.0000   1.0000   1.0000   1.0000   1.0000   1.0000   0.0000
     0.0000   0.0000   0.0000   0.0000

          k = 0.2001 0.5775 0.0000 ( 11356 PWs)   bands (ev):

   -29.3548 -29.2817 -29.2513 -29.2429 -29.2349 -29.2104 -29.1984 -29.1814
   -29.1585 -29.0992  -9.8324  -8.7509  -4.0526  -2.9345  -2.3170   1.0508
     2.5075   2.5480   5.0323   6.3490

     occupation numbers 
     1.0000   1.0000   1.0000   1.0000   1.0000   1.0000   1.0000   1.0000
     1.0000   1.0000   1.0000   1.0000   1.0000   1.0000   1.0000   0.0000
     0.0000   0.0000   0.0000   0.0000

          k = 0.2667 0.4620 0.0000 ( 11386 PWs)   bands (ev):

   -29.3551 -29.2773 -29.2686 -29.2446 -29.2303 -29.2075 -29.1939 -29.1779
   -29.1592 -29.0993 -10.0675  -8.4766  -4.0136  -3.2166  -2.0273   1.0183
     2.1454   3.1720   5.7245   5.8733

     occupation numbers 
     1.0000   1.0000   1.0000   1.0000   1.0000   1.0000   1.0000   1.0000
     1.0000   1.0000   1.0000   1.0000   1.0000   1.0000   1.0000   0.0000
     0.0000   0.0000   0.0000   0.0000

          k = 0.2667 0.5390 0.0000 ( 11389 PWs)   bands (ev):

   -29.3547 -29.2706 -29.2584 -29.2439 -29.2340 -29.2092 -29.2027 -29.1761
   -29.1634 -29.1000  -9.6653  -8.8679  -4.2372  -2.9154  -2.3375   0.7929
     2.5243   2.9686   5.8323   6.0413

     occupation numbers 
     1.0000   1.0000   1.0000   1.0000   1.0000   1.0000   1.0000   1.0000
     1.0000   1.0000   1.0000   1.0000   1.0000   1.0000   1.0000   0.0000
     0.0000   0.0000   0.0000   0.0000

          k = 0.3334 0.5775 0.0000 ( 11424 PWs)   bands (ev):

   -29.3546 -29.2578 -29.2570 -29.2569 -29.2219 -29.2219 -29.2022 -29.1700
   -29.1700 -29.1005  -9.2577  -9.2577  -4.3527  -2.6202  -2.6202   0.6564
     2.8258   2.8258   5.8648   6.7010

     occupation numbers 
     1.0000   1.0000   1.0000   1.0000   1.0000   1.0000   1.0000   1.0000
     1.0000   1.0000   1.0000   1.0000   1.0000   1.0000   1.0000   0.0000
     0.0000   0.0000   0.0000   0.0000

     highest occupied, lowest unoccupied level (ev):    -0.6621    0.5109

!    total energy              =    -369.92724710 Ry
     estimated scf accuracy    <          3.3E-09 Ry

     The total energy is the sum of the following terms:
     one-electron contribution =    -802.49234610 Ry
     hartree contribution      =     406.78842935 Ry
     xc contribution           =     -88.03340704 Ry
     ewald contribution        =     113.84499754 Ry
     DFT-D3 Dispersion         =      -0.03492085 Ry

     convergence has been achieved in   9 iterations

     negative rho (up, down):  3.103E-06 0.000E+00

     Forces acting on atoms (cartesian axes, Ry/au):

     atom    1 type  1   force =     0.00000000    0.00000000   -0.00025769
     atom    2 type  1   force =     0.00000000    0.00000000    0.00025769
     The non-local contrib.  to forces
     atom    1 type  1   force =     0.00000000    0.00000000    0.51500825
     atom    2 type  1   force =     0.00000000    0.00000000   -0.51501010
     The ionic contribution  to forces
     atom    1 type  1   force =    -0.00000001    0.00000001  -35.88937335
     atom    2 type  1   force =     0.00000001   -0.00000001   35.88937335
     The local contribution  to forces
     atom    1 type  1   force =     0.00000000   -0.00000000   35.37191793
     atom    2 type  1   force =     0.00000040   -0.00000023  -35.37191334
     The core correction contribution to forces
     atom    1 type  1   force =    -0.00000000    0.00000000    0.00080114
     atom    2 type  1   force =     0.00000004   -0.00000002   -0.00080406
     The Hubbard contrib.    to forces
     atom    1 type  1   force =     0.00000000    0.00000000    0.00000000
     atom    2 type  1   force =     0.00000000    0.00000000    0.00000000
     The SCF correction term to forces
     atom    1 type  1   force =    -0.00000000    0.00000000    0.00000000
     atom    2 type  1   force =     0.00000000   -0.00000000   -0.00013382

     DFT-D3 dispersion contribution to forces:
     atom    1 type  1   force =     0.00000000   -0.00000000    0.00125738
     atom    2 type  1   force =    -0.00000000    0.00000000   -0.00125738

     Total force =     0.000258     Total SCF correction =     0.000134

     DFT-D3 dispersion Force =     0.001778
     SCF correction compared to forces is large: reduce conv_thr to get better values


     Computing stress (Cartesian axis) and pressure


     negative rho (up, down):  3.103E-06 0.000E+00
          total   stress  (Ry/bohr**3)                   (kbar)     P=       -0.13
  -0.00000060  -0.00000000   0.00000000           -0.09       -0.00        0.00
  -0.00000000  -0.00000060   0.00000000           -0.00       -0.09        0.00
  -0.00000000  -0.00000000  -0.00000141           -0.00       -0.00       -0.21

     kinetic stress (kbar)   4815.17      0.00     -0.00
                                0.00   4815.17     -0.00
                               -0.00     -0.00   4838.18

     local   stress (kbar) -62973.42      0.00     -0.00
                                0.00 -62973.42      0.00
                               -0.00      0.00  63650.67

     nonloc. stress (kbar)     28.70     -0.00      0.00
                               -0.00     28.70      0.00
                                0.00      0.00     47.37

     hartree stress (kbar)  34193.36      0.00     -0.00
                                0.00  34193.36     -0.00
                               -0.00     -0.00 -27095.57

     exc-cor stress (kbar)   2959.44     -0.00      0.00
                               -0.00   2959.44     -0.00
                                0.00     -0.00   2958.17

     corecor stress (kbar)  -4664.34     -0.00      0.00
                               -0.00  -4664.34     -0.00
                                0.00     -0.00  -4664.81

     ewald   stress (kbar)  25644.81     -0.00      0.00
                               -0.00  25644.81     -0.00
                                0.00     -0.00 -39733.76

     hubbard stress (kbar)      0.00      0.00      0.00
                                0.00      0.00      0.00
                                0.00      0.00      0.00

     DFT-D   stress (kbar)     -3.80     -0.00     -0.00
                               -0.00     -3.80      0.00
                               -0.00      0.00     -0.46

     XDM     stress (kbar)      0.00      0.00      0.00
                                0.00      0.00      0.00
                                0.00      0.00      0.00

     dft-nl  stress (kbar)      0.00      0.00      0.00
                                0.00      0.00      0.00
                                0.00      0.00      0.00

     TS-vdW  stress (kbar)      0.00      0.00      0.00
                                0.00      0.00      0.00
                                0.00      0.00      0.00


     Energy error            =      2.8E-08
     Gradient error          =      2.6E-04
     Cell gradient error     =      6.0E-07


     number of scf cycles    =   3
     number of bfgs steps    =   2

     enthalpy old            =    -369.9272471269 Ry
     enthalpy new            =    -369.9272470986 Ry

     CASE: enthalpy_new > enthalpy_old

     new trust radius        =       0.0004088857 bohr
     new conv_thr            =       0.0000000100 Ry

     new unit-cell volume =   1449.40225 a.u.^3 (   214.77925 Ang^3 )
     density =      0.18572 g/cm^3

CELL_PARAMETERS (alat=  7.68551615)
   0.999795199  -0.000000000   0.000000000
  -0.499897599   0.865848041   0.000000000
   0.000000000   0.000000000   3.688222277

ATOMIC_POSITIONS (crystal)
Sb            0.0000000000        0.0000000000        0.5000000000    0   0   0
Sb            0.3333333330        0.6666666670        0.6101531050



     Writing output data file ./tmp/Sb.save/
     NEW-OLD atomic charge density approx. for the potential

     negative rho (up, down):  2.309E-06 0.000E+00
     extrapolated charge   30.00319, renormalised to   30.00000

     total cpu time spent up to now is       75.6 secs

     Self-consistent Calculation

     iteration #  1     ecut=    60.00 Ry     beta= 0.70
     Davidson diagonalization with overlap
     ethr =  1.00E-06,  avg # of iterations =  2.0

     Threshold (ethr) on eigenvalues was too large:
     Diagonalizing with lowered threshold

     Davidson diagonalization with overlap
     ethr =  1.61E-08,  avg # of iterations =  1.0

     negative rho (up, down):  2.735E-06 0.000E+00

     total cpu time spent up to now is       80.3 secs

     total energy              =    -369.92723967 Ry
     estimated scf accuracy    <       0.00000487 Ry

     iteration #  2     ecut=    60.00 Ry     beta= 0.70
     Davidson diagonalization with overlap
     ethr =  1.62E-08,  avg # of iterations =  3.0

     negative rho (up, down):  2.941E-06 0.000E+00

     total cpu time spent up to now is       83.2 secs

     total energy              =    -369.92724690 Ry
     estimated scf accuracy    <       0.00001115 Ry

     iteration #  3     ecut=    60.00 Ry     beta= 0.70
     Davidson diagonalization with overlap
     ethr =  1.62E-08,  avg # of iterations =  2.0

     negative rho (up, down):  2.999E-06 0.000E+00

     total cpu time spent up to now is       85.6 secs

     total energy              =    -369.92724753 Ry
     estimated scf accuracy    <       0.00000181 Ry

     iteration #  4     ecut=    60.00 Ry     beta= 0.70
     Davidson diagonalization with overlap
     ethr =  6.02E-09,  avg # of iterations =  1.0

[...]
     0.0000   0.0000   0.0000   0.0000

          k = 0.0000 0.2310 0.0000 ( 11413 PWs)   bands (ev):

   -29.3598 -29.3422 -29.2851 -29.2745 -29.2385 -29.1857 -29.1782 -29.1450
   -29.1165 -29.0940 -11.7326  -7.1754  -2.9348  -1.4049  -1.3488   0.8641
     2.7128   2.8008   3.9790   4.1551

     occupation numbers 
     1.0000   1.0000   1.0000   1.0000   1.0000   1.0000   1.0000   1.0000
     1.0000   1.0000   1.0000   1.0000   1.0000   1.0000   1.0000   0.0000
     0.0000   0.0000   0.0000   0.0000

          k = 0.0000 0.3080 0.0000 ( 11404 PWs)   bands (ev):

   -29.3581 -29.3281 -29.2835 -29.2655 -29.2329 -29.1923 -29.1804 -29.1495
   -29.1317 -29.0947 -11.4053  -7.3283  -3.5523  -1.7266  -1.4051   0.5556
     2.7029   2.8370   4.2448   4.4311

     occupation numbers 
     1.0000   1.0000   1.0000   1.0000   1.0000   1.0000   1.0000   1.0000
     1.0000   1.0000   1.0000   1.0000   1.0000   1.0000   1.0000   0.0000
     0.0000   0.0000   0.0000   0.0000

          k = 0.0000 0.3850 0.0000 ( 11354 PWs)   bands (ev):

   -29.3564 -29.3132 -29.2800 -29.2551 -29.2263 -29.2006 -29.1842 -29.1595
   -29.1433 -29.0955 -11.0064  -7.6575  -3.8595  -1.9896  -1.6481   0.5111
     2.3286   2.8664   4.6015   4.7179

     occupation numbers 
     1.0000   1.0000   1.0000   1.0000   1.0000   1.0000   1.0000   1.0000
     1.0000   1.0000   1.0000   1.0000   1.0000   1.0000   1.0000   0.0000
     0.0000   0.0000   0.0000   0.0000

          k = 0.0000 0.4620 0.0000 ( 11352 PWs)   bands (ev):

   -29.3550 -29.3026 -29.2714 -29.2438 -29.2208 -29.2102 -29.1899 -29.1747
   -29.1477 -29.0960 -10.5738  -8.1119  -3.8937  -2.1735  -1.9982   0.6748
     1.9433   2.8504   4.4915   5.2465

     occupation numbers 
     1.0000   1.0000   1.0000   1.0000   1.0000   1.0000   1.0000   1.0000
     1.0000   1.0000   1.0000   1.0000   1.0000   1.0000   1.0000   0.0000
     0.0000   0.0000   0.0000   0.0000

          k = 0.0000 0.5390 0.0000 ( 11328 PWs)   bands (ev):

   -29.3543 -29.2985 -29.2597 -29.2322 -29.2209 -29.2208 -29.1928 -29.1861
   -29.1493 -29.0963 -10.2247  -8.4990  -3.8149  -2.2684  -2.2678   0.8816
     1.6612   2.8317   4.3106   5.8738

     occupation numbers 
     1.0000   1.0000   1.0000   1.0000   1.0000   1.0000   1.0000   1.0000
     1.0000   1.0000   1.0000   1.0000   1.0000   1.0000   1.0000   0.0000
     0.0000   0.0000   0.0000   0.0000

          k = 0.0667 0.1155 0.0000 ( 11417 PWs)   bands (ev):

   -29.3616 -29.3555 -29.2863 -29.2829 -29.2432 -29.1798 -29.1770 -29.1415
   -29.1012 -29.0933 -12.0216  -7.1410  -1.8234  -1.4170  -1.0343   1.7507
     1.7883   2.5667   3.7389   3.8300

     occupation numbers 
     1.0000   1.0000   1.0000   1.0000   1.0000   1.0000   1.0000   1.0000
     1.0000   1.0000   1.0000   1.0000   1.0000   1.0000   1.0000   0.0000
     0.0000   0.0000   0.0000   0.0000

          k = 0.0667 0.1925 0.0000 ( 11438 PWs)   bands (ev):

   -29.3604 -29.3465 -29.2851 -29.2777 -29.2400 -29.1840 -29.1775 -29.1438
   -29.1116 -29.0939 -11.8281  -7.1530  -2.6006  -1.4641  -1.3328   1.3458
     2.2001   2.9190   3.9265   4.0645

     occupation numbers 
     1.0000   1.0000   1.0000   1.0000   1.0000   1.0000   1.0000   1.0000
     1.0000   1.0000   1.0000   1.0000   1.0000   1.0000   1.0000   0.0000
     0.0000   0.0000   0.0000   0.0000

          k = 0.0667 0.2695 0.0000 ( 11398 PWs)   bands (ev):

   -29.3588 -29.3337 -29.2837 -29.2702 -29.2350 -29.1901 -29.1787 -29.1475
   -29.1257 -29.0946 -11.5437  -7.2446  -3.2799  -1.8504  -1.3268   0.9501
     2.5069   2.9546   4.1469   4.3198

     occupation numbers 
     1.0000   1.0000   1.0000   1.0000   1.0000   1.0000   1.0000   1.0000
     1.0000   1.0000   1.0000   1.0000   1.0000   1.0000   1.0000   0.0000
     0.0000   0.0000   0.0000   0.0000

          k = 0.0667 0.3465 0.0000 ( 11362 PWs)   bands (ev):

   -29.3571 -29.3187 -29.2813 -29.2610 -29.2286 -29.1979 -29.1811 -29.1542
   -29.1398 -29.0954 -11.1785  -7.4886  -3.7166  -2.1771  -1.4503   0.7481
     2.6342   2.6418   4.4766   4.6393

     occupation numbers 
     1.0000   1.0000   1.0000   1.0000   1.0000   1.0000   1.0000   1.0000
     1.0000   1.0000   1.0000   1.0000   1.0000   1.0000   1.0000   0.0000
     0.0000   0.0000   0.0000   0.0000

          k = 0.0667 0.4235 0.0000 ( 11362 PWs)   bands (ev):

   -29.3556 -29.3051 -29.2758 -29.2505 -29.2219 -29.2071 -29.1855 -29.1681
   -29.1471 -29.0961 -10.7556  -7.8948  -3.8723  -2.4024  -1.7437   0.7999
     2.2106   2.6792   4.6706   5.0177

     occupation numbers 
     1.0000   1.0000   1.0000   1.0000   1.0000   1.0000   1.0000   1.0000
     1.0000   1.0000   1.0000   1.0000   1.0000   1.0000   1.0000   0.0000
     0.0000   0.0000   0.0000   0.0000

          k = 0.0667 0.5005 0.0000 ( 11355 PWs)   bands (ev):

   -29.3546 -29.2978 -29.2645 -29.2395 -29.2202 -29.2154 -29.1909 -29.1819
   -29.1498 -29.0966 -10.3394  -8.3470  -3.8449  -2.4972  -2.0948   1.0233
     1.8136   2.6943   4.4604   5.6143

     occupation numbers 
     1.0000   1.0000   1.0000   1.0000   1.0000   1.0000   1.0000   1.0000
     1.0000   1.0000   1.0000   1.0000   1.0000   1.0000   1.0000   0.0000
     0.0000   0.0000   0.0000   0.0000

          k = 0.0667 0.5775 0.0000 ( 11322 PWs)   bands (ev):

   -29.3542 -29.2961 -29.2564 -29.2302 -29.2284 -29.2180 -29.1905 -29.1895
   -29.1505 -29.0968 -10.1286  -8.5787  -3.8039  -2.4702  -2.3035   1.2241
     1.5672   2.7015   4.3470   6.2288

     occupation numbers 
     1.0000   1.0000   1.0000   1.0000   1.0000   1.0000   1.0000   1.0000
     1.0000   1.0000   1.0000   1.0000   1.0000   1.0000   1.0000   0.0000
     0.0000   0.0000   0.0000   0.0000

          k = 0.1334 0.2310 0.0000 ( 11375 PWs)   bands (ev):

   -29.3591 -29.3356 -29.2832 -29.2724 -29.2356 -29.1896 -29.1778 -29.1469
   -29.1235 -29.0946 -11.5902  -7.2195  -3.1045  -2.0308  -1.3090   1.4520
     2.0746   3.0935   4.1695   4.2609

     occupation numbers 
     1.0000   1.0000   1.0000   1.0000   1.0000   1.0000   1.0000   1.0000
     1.0000   1.0000   1.0000   1.0000   1.0000   1.0000   1.0000   0.0000
     0.0000   0.0000   0.0000   0.0000

          k = 0.1334 0.3080 0.0000 ( 11359 PWs)   bands (ev):

   -29.3576 -29.3215 -29.2808 -29.2656 -29.2293 -29.1972 -29.1786 -29.1521
   -29.1375 -29.0956 -11.2660  -7.4018  -3.5005  -2.5318  -1.3550   1.2804
     2.1625   3.0240   4.4407   4.5734

     occupation numbers 
     1.0000   1.0000   1.0000   1.0000   1.0000   1.0000   1.0000   1.0000
     1.0000   1.0000   1.0000   1.0000   1.0000   1.0000   1.0000   0.0000
     0.0000   0.0000   0.0000   0.0000

          k = 0.1334 0.3850 0.0000 ( 11350 PWs)   bands (ev):

   -29.3562 -29.3063 -29.2773 -29.2570 -29.2219 -29.2065 -29.1807 -29.1636
   -29.1474 -29.0965 -10.8699  -7.7383  -3.7280  -2.8514  -1.5536   1.1779
     2.1461   2.8134   4.7809   4.9551

     occupation numbers 
     1.0000   1.0000   1.0000   1.0000   1.0000   1.0000   1.0000   1.0000
     1.0000   1.0000   1.0000   1.0000   1.0000   1.0000   1.0000   0.0000
     0.0000   0.0000   0.0000   0.0000

          k = 0.1334 0.4620 0.0000 ( 11338 PWs)   bands (ev):

   -29.3550 -29.2949 -29.2692 -29.2472 -29.2188 -29.2138 -29.1853 -29.1784
   -29.1516 -29.0973 -10.4367  -8.1822  -3.8219  -2.9430  -1.8903   1.2363
     2.0368   2.6235   4.7831   5.4460

     occupation numbers 
     1.0000   1.0000   1.0000   1.0000   1.0000   1.0000   1.0000   1.0000
     1.0000   1.0000   1.0000   1.0000   1.0000   1.0000   1.0000   0.0000
     0.0000   0.0000   0.0000   0.0000

          k = 0.1334 0.5390 0.0000 ( 11357 PWs)   bands (ev):

   -29.3543 -29.2907 -29.2566 -29.2381 -29.2292 -29.2128 -29.1921 -29.1854
   -29.1534 -29.0978 -10.0778  -8.5668  -3.8592  -2.8385  -2.2277   1.3540
     1.9175   2.5302   4.5949   6.0933

     occupation numbers 
     1.0000   1.0000   1.0000   1.0000   1.0000   1.0000   1.0000   1.0000
     1.0000   1.0000   1.0000   1.0000   1.0000   1.0000   1.0000   0.0000
     0.0000   0.0000   0.0000   0.0000

          k = 0.2001 0.3465 0.0000 ( 11359 PWs)   bands (ev):

   -29.3564 -29.3066 -29.2772 -29.2600 -29.2218 -29.2065 -29.1787 -29.1619
   -29.1476 -29.0968 -10.9088  -7.6809  -3.5580  -3.1483  -1.4868   1.5424
     1.7528   3.1504   4.8093   4.9244

     occupation numbers 
     1.0000   1.0000   1.0000   1.0000   1.0000   1.0000   1.0000   1.0000
     1.0000   1.0000   1.0000   1.0000   1.0000   1.0000   1.0000   0.0000
     0.0000   0.0000   0.0000   0.0000

          k = 0.2001 0.4235 0.0000 ( 11359 PWs)   bands (ev):

   -29.3552 -29.2916 -29.2725 -29.2522 -29.2177 -29.2139 -29.1799 -29.1771
   -29.1535 -29.0979 -10.4912  -8.0744  -3.6939  -3.3538  -1.7485   1.3529
     1.8418   3.1063   5.1468   5.3893

     occupation numbers 
     1.0000   1.0000   1.0000   1.0000   1.0000   1.0000   1.0000   1.0000
     1.0000   1.0000   1.0000   1.0000   1.0000   1.0000   1.0000   0.0000
     0.0000   0.0000   0.0000   0.0000

          k = 0.2001 0.5005 0.0000 ( 11356 PWs)   bands (ev):

   -29.3545 -29.2830 -29.2622 -29.2430 -29.2298 -29.2087 -29.1932 -29.1802
   -29.1570 -29.0987 -10.0653  -8.5071  -3.9581  -3.1206  -2.0937   1.1257
     2.1624   2.8681   5.1123   5.9654

     occupation numbers 
     1.0000   1.0000   1.0000   1.0000   1.0000   1.0000   1.0000   1.0000
     1.0000   1.0000   1.0000   1.0000   1.0000   1.0000   1.0000   0.0000
     0.0000   0.0000   0.0000   0.0000

          k = 0.2001 0.5775 0.0000 ( 11348 PWs)   bands (ev):

   -29.3542 -29.2812 -29.2509 -29.2425 -29.2345 -29.2101 -29.1980 -29.1811
   -29.1583 -29.0990  -9.8301  -8.7490  -4.0505  -2.9335  -2.3172   1.0494
     2.5056   2.5480   5.0337   6.3489

     occupation numbers 
     1.0000   1.0000   1.0000   1.0000   1.0000   1.0000   1.0000   1.0000
     1.0000   1.0000   1.0000   1.0000   1.0000   1.0000   1.0000   0.0000
     0.0000   0.0000   0.0000   0.0000

          k = 0.2668 0.4620 0.0000 ( 11374 PWs)   bands (ev):

   -29.3545 -29.2769 -29.2682 -29.2442 -29.2299 -29.2072 -29.1936 -29.1777
   -29.1590 -29.0991 -10.0652  -8.4748  -4.0111  -3.2161  -2.0273   1.0170
     2.1437   3.1711   5.7267   5.8740

     occupation numbers 
     1.0000   1.0000   1.0000   1.0000   1.0000   1.0000   1.0000   1.0000
     1.0000   1.0000   1.0000   1.0000   1.0000   1.0000   1.0000   0.0000
     0.0000   0.0000   0.0000   0.0000

          k = 0.2668 0.5390 0.0000 ( 11377 PWs)   bands (ev):

   -29.3541 -29.2702 -29.2580 -29.2435 -29.2336 -29.2088 -29.2024 -29.1758
   -29.1632 -29.0998  -9.6630  -8.8659  -4.2347  -2.9150  -2.3375   0.7914
     2.5225   2.9673   5.8342   6.0420

     occupation numbers 
     1.0000   1.0000   1.0000   1.0000   1.0000   1.0000   1.0000   1.0000
     1.0000   1.0000   1.0000   1.0000   1.0000   1.0000   1.0000   0.0000
     0.0000   0.0000   0.0000   0.0000

          k = 0.3334 0.5775 0.0000 ( 11406 PWs)   bands (ev):

   -29.3540 -29.2574 -29.2566 -29.2565 -29.2215 -29.2215 -29.2019 -29.1698
   -29.1697 -29.1003  -9.2556  -9.2555  -4.3501  -2.6201  -2.6200   0.6549
     2.8240   2.8240   5.8647   6.7035

     occupation numbers 
     1.0000   1.0000   1.0000   1.0000   1.0000   1.0000   1.0000   1.0000
     1.0000   1.0000   1.0000   1.0000   1.0000   1.0000   1.0000   0.0000
     0.0000   0.0000   0.0000   0.0000

     highest occupied, lowest unoccupied level (ev):    -0.6586    0.5111

!    total energy              =    -369.92724639 Ry
     estimated scf accuracy    <          3.0E-09 Ry

     The total energy is the sum of the following terms:
     one-electron contribution =    -802.42701997 Ry
     hartree contribution      =     406.75809833 Ry
     xc contribution           =     -88.03323589 Ry
     ewald contribution        =     113.80983406 Ry
     DFT-D3 Dispersion         =      -0.03492292 Ry

     convergence has been achieved in   9 iterations

     negative rho (up, down):  2.927E-06 0.000E+00

     Forces acting on atoms (cartesian axes, Ry/au):

     atom    1 type  1   force =     0.00000000    0.00000000    0.00002434
     atom    2 type  1   force =     0.00000000    0.00000000   -0.00002434
     The non-local contrib.  to forces
     atom    1 type  1   force =     0.00000000    0.00000000    0.51448700
     atom    2 type  1   force =    -0.00000000   -0.00000000   -0.51447995
     The ionic contribution  to forces
     atom    1 type  1   force =    -0.00000001    0.00000001  -35.89831380
     atom    2 type  1   force =     0.00000001   -0.00000001   35.89831380
     The local contribution  to forces
     atom    1 type  1   force =    -0.00000000   -0.00000000   35.38181691
     atom    2 type  1   force =     0.00000040   -0.00000023  -35.38181434
     The core correction contribution to forces
     atom    1 type  1   force =    -0.00000000    0.00000000    0.00078499
     atom    2 type  1   force =     0.00000004   -0.00000002   -0.00078823
     The Hubbard contrib.    to forces
     atom    1 type  1   force =     0.00000000    0.00000000    0.00000000
     atom    2 type  1   force =     0.00000000    0.00000000    0.00000000
     The SCF correction term to forces
     atom    1 type  1   force =    -0.00000000    0.00000000   -0.00000000
     atom    2 type  1   force =    -0.00000000    0.00000000    0.00000487

     DFT-D3 dispersion contribution to forces:
     atom    1 type  1   force =     0.00000000   -0.00000000    0.00125814
     atom    2 type  1   force =    -0.00000000    0.00000000   -0.00125814

     Total force =     0.000024     Total SCF correction =     0.000005

     DFT-D3 dispersion Force =     0.001779
     SCF correction compared to forces is large: reduce conv_thr to get better values


     Computing stress (Cartesian axis) and pressure


     negative rho (up, down):  2.927E-06 0.000E+00
          total   stress  (Ry/bohr**3)                   (kbar)     P=        0.11
   0.00000114  -0.00000000   0.00000000            0.17       -0.00        0.00
  -0.00000000   0.00000114   0.00000000           -0.00        0.17        0.00
   0.00000000   0.00000000  -0.00000003            0.00        0.00       -0.00

     kinetic stress (kbar)   4815.75     -0.00      0.00
                               -0.00   4815.75      0.00
                                0.00      0.00   4838.61

     local   stress (kbar) -62972.55      0.00     -0.00
                                0.00 -62972.55      0.00
                               -0.00      0.00  63648.50

     nonloc. stress (kbar)     28.93      0.00      0.00
                                0.00     28.93      0.00
                                0.00      0.00     47.58

     hartree stress (kbar)  34193.79     -0.00     -0.00
                               -0.00  34193.79     -0.00
                               -0.00     -0.00 -27094.75

     exc-cor stress (kbar)   2959.79     -0.00      0.00
                               -0.00   2959.79     -0.00
                                0.00     -0.00   2958.52

     corecor stress (kbar)  -4664.88     -0.00      0.00
                               -0.00  -4664.88     -0.00
                                0.00     -0.00  -4665.35

     ewald   stress (kbar)  25643.14     -0.00      0.00
                               -0.00  25643.14     -0.00
                                0.00     -0.00 -39732.66

     hubbard stress (kbar)      0.00      0.00      0.00
                                0.00      0.00      0.00
                                0.00      0.00      0.00

     DFT-D   stress (kbar)     -3.80     -0.00     -0.00
                               -0.00     -3.80      0.00
                               -0.00      0.00     -0.46

     XDM     stress (kbar)      0.00      0.00      0.00
                                0.00      0.00      0.00
                                0.00      0.00      0.00

     dft-nl  stress (kbar)      0.00      0.00      0.00
                                0.00      0.00      0.00
                                0.00      0.00      0.00

     TS-vdW  stress (kbar)      0.00      0.00      0.00
                                0.00      0.00      0.00
                                0.00      0.00      0.00



     Writing output data file ./tmp/Sb.save/

     init_run     :      3.59s CPU      3.80s WALL (       2 calls)
     electrons    :    185.06s CPU    202.41s WALL (      11 calls)
     update_pot   :     11.18s CPU     11.39s WALL (       9 calls)
     forces       :     11.51s CPU     12.61s WALL (      11 calls)
     stress       :     36.13s CPU     38.12s WALL (      11 calls)

     Called by init_run:
     wfcinit      :      1.21s CPU      1.30s WALL (       2 calls)
     wfcinit:atom :      0.02s CPU      0.02s WALL (      54 calls)
     wfcinit:wfcr :      1.16s CPU      1.24s WALL (      54 calls)
     potinit      :      0.68s CPU      0.70s WALL (       2 calls)
     hinit0       :      1.33s CPU      1.33s WALL (       2 calls)

     Called by electrons:
     c_bands      :    135.25s CPU    145.43s WALL (      78 calls)
     sum_band     :     36.01s CPU     40.40s WALL (      78 calls)
     v_of_rho     :      4.86s CPU      5.24s WALL (      81 calls)
     v_h          :      0.37s CPU      0.42s WALL (      81 calls)
     v_xc         :      5.94s CPU      6.41s WALL (     103 calls)
     newd         :      9.76s CPU     12.51s WALL (      81 calls)
     mix_rho      :      0.55s CPU      0.62s WALL (      78 calls)

     Called by c_bands:
     init_us_2    :      1.88s CPU      2.38s WALL (    4860 calls)
     cegterg      :    130.88s CPU    140.88s WALL (    2106 calls)

     Called by sum_band:
     sum_band:wei :      0.00s CPU      0.00s WALL (      78 calls)
     sum_band:loo :     25.28s CPU     26.74s WALL (      78 calls)
     sum_band:buf :      0.19s CPU      0.20s WALL (    2106 calls)
     sum_band:ini :      0.81s CPU      1.14s WALL (    2106 calls)
     sum_band:cal :      1.94s CPU      2.25s WALL (    2106 calls)
     sum_band:bec :      0.02s CPU      0.02s WALL (    2106 calls)
     addusdens    :     10.06s CPU     12.93s WALL (      78 calls)
     addusd:skk   :      0.02s CPU      0.03s WALL (      78 calls)
     addusd:dgemm :      1.58s CPU      3.39s WALL (      78 calls)
     addusd:qvan2 :      7.54s CPU      8.04s WALL (      78 calls)

     Called by *egterg:
     cdiaghg      :      1.91s CPU      2.37s WALL (    6644 calls)
     cegterg:over :      6.71s CPU      8.06s WALL (    4997 calls)
     cegterg:upda :      2.99s CPU      3.70s WALL (    4997 calls)
     cegterg:last :      4.75s CPU      5.69s WALL (    3903 calls)
     h_psi        :    107.96s CPU    112.38s WALL (    7157 calls)
     s_psi        :      3.12s CPU      4.09s WALL (    7157 calls)
     g_psi        :      0.24s CPU      0.24s WALL (    4997 calls)

     Called by h_psi:
     h_psi:calbec :      5.63s CPU      6.66s WALL (    7157 calls)
     vloc_psi     :     98.40s CPU    100.45s WALL (    7157 calls)
     add_vuspsi   :      3.54s CPU      4.74s WALL (    7157 calls)

     General routines
     calbec       :      9.02s CPU     10.72s WALL (   10748 calls)
     fft          :      5.38s CPU      5.64s WALL (    1323 calls)
     ffts         :      0.13s CPU      0.14s WALL (     159 calls)
     fftw         :    112.80s CPU    115.50s WALL (  247600 calls)
     interpolate  :      0.35s CPU      0.40s WALL (      81 calls)

     Parallel routines
     fft_scatt_xy :     10.66s CPU     10.91s WALL (  249082 calls)
     fft_scatt_yz :     14.42s CPU     15.52s WALL (  249082 calls)

     PWSCF        :   4m 8.79s CPU   4m30.11s WALL


   This run was terminated on:  16:25: 7  29Apr2026            

=------------------------------------------------------------------------------=
   JOB DONE.
=------------------------------------------------------------------------------=
Note: The following floating-point exceptions are signalling: IEEE_INVALID_FLAG IEEE_DIVIDE_BY_ZERO IEEE_UNDERFLOW_FLAG
