 CRYSTAL
 PRIMVEC
   -2.701449662    0.000000000    2.701449662
    0.000000000    2.701449662    2.701449662
   -2.701449662    2.701449662    0.000000000
 PRIMCOORD
           2           1
Si        0.000000000    0.000000000    0.000000000
Si        1.350724831    1.350724831    1.350724831
BEGIN_BLOCK_DATAGRID_3D
3D_PWSCF
BEGIN_DATAGRID_3D_UNKNOWN
          25          25          25
  0.000000  0.000000  0.000000
   -2.701450    0.000000    2.701450
    0.000000    2.701450    2.701450
   -2.701450    2.701450    0.000000
  0.962521E-03  0.483535E-02  0.180388E-01  0.387281E-01  0.567141E-01  0.628777E-01
  0.578849E-01  0.484105E-01  0.396668E-01  0.332197E-01  0.287676E-01  0.259901E-01
  0.250161E-01  0.259901E-01  0.287676E-01  0.332197E-01  0.396668E-01  0.484105E-01
  0.578849E-01  0.628777E-01  0.567141E-01  0.387281E-01  0.180388E-01  0.483535E-02
  0.962521E-03  0.483535E-02  0.121397E-01  0.275333E-01  0.452304E-01  0.553873E-01
  0.542870E-01  0.462687E-01  0.372351E-01  0.300922E-01  0.251017E-01  0.218130E-01
  0.201031E-01  0.201031E-01  0.218130E-01  0.251017E-01  0.300922E-01  0.372351E-01
  0.462687E-01  0.542870E-01  0.553873E-01  0.452304E-01  0.275333E-01  0.121397E-01
  0.483535E-02  0.483535E-02  0.180388E-01  0.275333E-01  0.405716E-01  0.499593E-01
  0.505633E-01  0.439558E-01  0.351324E-01  0.275887E-01  0.221850E-01  0.185470E-01
  0.163464E-01  0.155913E-01  0.163464E-01  0.185470E-01  0.221850E-01  0.275887E-01
  0.351324E-01  0.439558E-01  0.505633E-01  0.499593E-01  0.405716E-01  0.275333E-01
  0.180388E-01  0.149156E-01  0.180388E-01  0.387281E-01  0.452304E-01  0.499593E-01
  0.489753E-01  0.423886E-01  0.336097E-01  0.257789E-01  0.200185E-01  0.160936E-01
  0.135642E-01  0.122812E-01  0.122812E-01  0.135642E-01  0.160936E-01  0.200185E-01
  0.257789E-01  0.336097E-01  0.423886E-01  0.489753E-01  0.499593E-01  0.452304E-01
  0.387281E-01  0.346461E-01  0.346461E-01  0.387281E-01  0.567141E-01  0.553873E-01
  0.505633E-01  0.423886E-01  0.330443E-01  0.248196E-01  0.186816E-01  0.144541E-01
  0.116545E-01  0.100032E-01  0.944890E-02  0.100032E-01  0.116545E-01  0.144541E-01
  0.186816E-01  0.248196E-01  0.330443E-01  0.423886E-01  0.505633E-01  0.553873E-01
  0.567141E-01  0.563279E-01  0.559967E-01  0.563279E-01  0.567141E-01  0.628777E-01
  0.542870E-01  0.439558E-01  0.336097E-01  0.248196E-01  0.182316E-01  0.136411E-01
  0.105562E-01  0.861410E-02  0.766106E-02  0.766106E-02  0.861410E-02  0.105562E-01
  0.136411E-01  0.182316E-01  0.248196E-01  0.336097E-01  0.439558E-01  0.542870E-01
  0.628777E-01  0.687357E-01  0.716447E-01  0.716447E-01  0.687357E-01  0.628777E-01
  0.578849E-01  0.462687E-01  0.351324E-01  0.257789E-01  0.186816E-01  0.136411E-01
  0.102017E-01  0.797155E-02  0.671230E-02  0.630474E-02  0.671230E-02  0.797155E-02
  0.102017E-01  0.136411E-01  0.186816E-01  0.257789E-01  0.351324E-01  0.462687E-01
  0.578849E-01  0.681436E-01  0.752076E-01  0.777286E-01  0.752076E-01  0.681436E-01
  0.578849E-01  0.484105E-01  0.372351E-01  0.275887E-01  0.200185E-01  0.144541E-01
  0.105562E-01  0.797155E-02  0.642113E-02  0.570302E-02  0.570302E-02  0.642113E-02
  0.797155E-02  0.105562E-01  0.144541E-01  0.200185E-01  0.275887E-01  0.372351E-01
  0.484105E-01  0.597401E-01  0.691758E-01  0.745850E-01  0.745850E-01  0.691758E-01
  0.597401E-01  0.484105E-01  0.396668E-01  0.300922E-01  0.221850E-01  0.160936E-01
  0.116545E-01  0.861410E-02  0.671230E-02  0.570302E-02  0.539209E-02  0.570302E-02
  0.671230E-02  0.861410E-02  0.116545E-01  0.160936E-01  0.221850E-01  0.300922E-01
  0.396668E-01  0.501478E-01  0.600003E-01  0.671664E-01  0.698042E-01  0.671664E-01
  0.600003E-01  0.501478E-01  0.396668E-01  0.332197E-01  0.251017E-01  0.185470E-01
  0.135642E-01  0.100032E-01  0.766106E-02  0.630474E-02  0.570302E-02  0.570302E-02
  0.630474E-02  0.766106E-02  0.100032E-01  0.135642E-01  0.185470E-01  0.251017E-01
  0.332197E-01  0.425060E-01  0.519390E-01  0.598675E-01  0.644521E-01  0.644521E-01
  0.598675E-01  0.519390E-01  0.425060E-01  0.332197E-01  0.287676E-01  0.218130E-01
  0.163464E-01  0.122812E-01  0.944890E-02  0.766106E-02  0.671230E-02  0.642113E-02
  0.671230E-02  0.766106E-02  0.944890E-02  0.122812E-01  0.163464E-01  0.218130E-01
  0.287676E-01  0.370288E-01  0.459070E-01  0.541122E-01  0.600003E-01  0.621514E-01
  0.600003E-01  0.541122E-01  0.459070E-01  0.370288E-01  0.287676E-01  0.259901E-01
  0.201031E-01  0.155913E-01  0.122812E-01  0.100032E-01  0.861410E-02  0.797155E-02
  0.797155E-02  0.861410E-02  0.100032E-01  0.122812E-01  0.155913E-01  0.201031E-01
  0.259901E-01  0.332502E-01  0.414323E-01  0.495063E-01  0.560579E-01  0.597401E-01
  0.597401E-01  0.560579E-01  0.495063E-01  0.414323E-01  0.332502E-01  0.259901E-01
  0.250161E-01  0.201031E-01  0.163464E-01  0.135642E-01  0.116545E-01  0.105562E-01
  0.102017E-01  0.105562E-01  0.116545E-01  0.135642E-01  0.163464E-01  0.201031E-01
  0.250161E-01  0.312021E-01  0.383994E-01  0.457777E-01  0.521411E-01  0.563976E-01
  0.578849E-01  0.563976E-01  0.521411E-01  0.457777E-01  0.383994E-01  0.312021E-01
  0.250161E-01  0.259901E-01  0.218130E-01  0.185470E-01  0.160936E-01  0.144541E-01
  0.136411E-01  0.136411E-01  0.144541E-01  0.160936E-01  0.185470E-01  0.218130E-01
  0.259901E-01  0.312021E-01  0.372842E-01  0.435251E-01  0.488718E-01  0.525250E-01
  0.542870E-01  0.542870E-01  0.525250E-01  0.488718E-01  0.435251E-01  0.372842E-01
  0.312021E-01  0.259901E-01  0.287676E-01  0.251017E-01  0.221850E-01  0.200185E-01
  0.186816E-01  0.182316E-01  0.186816E-01  0.200185E-01  0.221850E-01  0.251017E-01
  0.287676E-01  0.332502E-01  0.383994E-01  0.435251E-01  0.475600E-01  0.498153E-01
  0.505633E-01  0.506607E-01  0.505633E-01  0.498153E-01  0.475600E-01  0.435251E-01
  0.383994E-01  0.332502E-01  0.287676E-01  0.332197E-01  0.300922E-01  0.275887E-01
  0.257789E-01  0.248196E-01  0.248196E-01  0.257789E-01  0.275887E-01  0.300922E-01
  0.332197E-01  0.370288E-01  0.414323E-01  0.457777E-01  0.488718E-01  0.498153E-01
  0.489753E-01  0.478704E-01  0.478704E-01  0.489753E-01  0.498153E-01  0.488718E-01
  0.457777E-01  0.414323E-01  0.370288E-01  0.332197E-01  0.396668E-01  0.372351E-01
  0.351324E-01  0.336097E-01  0.330443E-01  0.336097E-01  0.351324E-01  0.372351E-01
  0.396668E-01  0.425060E-01  0.459070E-01  0.495063E-01  0.521411E-01  0.525250E-01
  0.505633E-01  0.478704E-01  0.466394E-01  0.478704E-01  0.505633E-01  0.525250E-01
  0.521411E-01  0.495063E-01  0.459070E-01  0.425060E-01  0.396668E-01  0.484105E-01
  0.462687E-01  0.439558E-01  0.423886E-01  0.423886E-01  0.439558E-01  0.462687E-01
  0.484105E-01  0.501478E-01  0.519390E-01  0.541122E-01  0.560579E-01  0.563976E-01
  0.542870E-01  0.506607E-01  0.478704E-01  0.478704E-01  0.506607E-01  0.542870E-01
  0.563976E-01  0.560579E-01  0.541122E-01  0.519390E-01  0.501478E-01  0.484105E-01
  0.578849E-01  0.542870E-01  0.505633E-01  0.489753E-01  0.505633E-01  0.542870E-01
  0.578849E-01  0.597401E-01  0.600003E-01  0.598675E-01  0.600003E-01  0.597401E-01
  0.578849E-01  0.542870E-01  0.505633E-01  0.489753E-01  0.505633E-01  0.542870E-01
  0.578849E-01  0.597401E-01  0.600003E-01  0.598675E-01  0.600003E-01  0.597401E-01
  0.578849E-01  0.628777E-01  0.553873E-01  0.499593E-01  0.499593E-01  0.553873E-01
  0.628777E-01  0.681436E-01  0.691758E-01  0.671664E-01  0.644521E-01  0.621514E-01
  0.597401E-01  0.563976E-01  0.525250E-01  0.498153E-01  0.498153E-01  0.525250E-01
  0.563976E-01  0.597401E-01  0.621514E-01  0.644521E-01  0.671664E-01  0.691758E-01
  0.681436E-01  0.628777E-01  0.567141E-01  0.452304E-01  0.405716E-01  0.452304E-01
  0.567141E-01  0.687357E-01  0.752076E-01  0.745850E-01  0.698042E-01  0.644521E-01
  0.600003E-01  0.560579E-01  0.521411E-01  0.488718E-01  0.475600E-01  0.488718E-01
  0.521411E-01  0.560579E-01  0.600003E-01  0.644521E-01  0.698042E-01  0.745850E-01
  0.752076E-01  0.687357E-01  0.567141E-01  0.387281E-01  0.275333E-01  0.275333E-01
  0.387281E-01  0.563279E-01  0.716447E-01  0.777286E-01  0.745850E-01  0.671664E-01
  0.598675E-01  0.541122E-01  0.495063E-01  0.457777E-01  0.435251E-01  0.435251E-01
  0.457777E-01  0.495063E-01  0.541122E-01  0.598675E-01  0.671664E-01  0.745850E-01
  0.777286E-01  0.716447E-01  0.563279E-01  0.387281E-01  0.180388E-01  0.121397E-01
  0.180388E-01  0.346461E-01  0.559967E-01  0.716447E-01  0.752076E-01  0.691758E-01
  0.600003E-01  0.519390E-01  0.459070E-01  0.414323E-01  0.383994E-01  0.372842E-01
  0.383994E-01  0.414323E-01  0.459070E-01  0.519390E-01  0.600003E-01  0.691758E-01
  0.752076E-01  0.716447E-01  0.559967E-01  0.346461E-01  0.180388E-01  0.483535E-02
  0.483535E-02  0.149156E-01  0.346461E-01  0.563279E-01  0.687357E-01  0.681436E-01
  0.597401E-01  0.501478E-01  0.425060E-01  0.370288E-01  0.332502E-01  0.312021E-01
  0.312021E-01  0.332502E-01  0.370288E-01  0.425060E-01  0.501478E-01  0.597401E-01
  0.681436E-01  0.687357E-01  0.563279E-01  0.346461E-01  0.149156E-01  0.483535E-02
  0.962521E-03  0.483535E-02  0.180388E-01  0.387281E-01  0.567141E-01  0.628777E-01
  0.578849E-01  0.484105E-01  0.396668E-01  0.332197E-01  0.287676E-01  0.259901E-01
  0.250161E-01  0.259901E-01  0.287676E-01  0.332197E-01  0.396668E-01  0.484105E-01
  0.578849E-01  0.628777E-01  0.567141E-01  0.387281E-01  0.180388E-01  0.483535E-02
  0.962521E-03  0.483535E-02  0.121397E-01  0.275333E-01  0.452304E-01  0.553873E-01
  0.542870E-01  0.462687E-01  0.372351E-01  0.300922E-01  0.251017E-01  0.218130E-01
  0.201031E-01  0.201031E-01  0.218130E-01  0.251017E-01  0.300922E-01  0.372351E-01
  0.462687E-01  0.542870E-01  0.553873E-01  0.452304E-01  0.275333E-01  0.121397E-01
  0.483535E-02  0.483535E-02  0.121397E-01  0.222332E-01  0.369375E-01  0.484724E-01
  0.506607E-01  0.447007E-01  0.359183E-01  0.282342E-01  0.227102E-01  0.190005E-01
  0.167596E-01  0.159903E-01  0.167596E-01  0.190005E-01  0.227102E-01  0.282342E-01
  0.359183E-01  0.447007E-01  0.506607E-01  0.484724E-01  0.369375E-01  0.222332E-01
  0.121397E-01  0.897966E-02  0.121397E-01  0.275333E-01  0.369375E-01  0.455533E-01
  0.478704E-01  0.430327E-01  0.347034E-01  0.267573E-01  0.208056E-01  0.167555E-01
  0.141550E-01  0.128357E-01  0.128357E-01  0.141550E-01  0.167555E-01  0.208056E-01
  0.267573E-01  0.347034E-01  0.430327E-01  0.478704E-01  0.455533E-01  0.369375E-01
  0.275333E-01  0.221777E-01  0.221777E-01  0.275333E-01  0.452304E-01  0.484724E-01
  0.478704E-01  0.423144E-01  0.339510E-01  0.258035E-01  0.194970E-01  0.151288E-01
  0.122451E-01  0.105428E-01  0.996963E-02  0.105428E-01  0.122451E-01  0.151288E-01
  0.194970E-01  0.258035E-01  0.339510E-01  0.423144E-01  0.478704E-01  0.484724E-01
  0.452304E-01  0.415564E-01  0.400791E-01  0.415564E-01  0.452304E-01  0.553873E-01
  0.506607E-01  0.430327E-01  0.339510E-01  0.254755E-01  0.188452E-01  0.141682E-01
  0.110206E-01  0.902873E-02  0.804268E-02  0.804268E-02  0.902873E-02  0.110206E-01
  0.141682E-01  0.188452E-01  0.254755E-01  0.339510E-01  0.430327E-01  0.506607E-01
  0.553873E-01  0.574297E-01  0.580059E-01  0.580059E-01  0.574297E-01  0.553873E-01
  0.542870E-01  0.447007E-01  0.347034E-01  0.258035E-01  0.188452E-01  0.138561E-01
  0.104376E-01  0.819528E-02  0.690556E-02  0.648219E-02  0.690556E-02  0.819528E-02
  0.104376E-01  0.138561E-01  0.188452E-01  0.258035E-01  0.347034E-01  0.447007E-01
  0.542870E-01  0.619772E-01  0.668471E-01  0.685039E-01  0.668471E-01  0.619772E-01
  0.542870E-01  0.462687E-01  0.359183E-01  0.267573E-01  0.194970E-01  0.141682E-01
  0.104376E-01  0.793427E-02  0.639471E-02  0.566279E-02  0.566279E-02  0.639471E-02
  0.793427E-02  0.104376E-01  0.141682E-01  0.194970E-01  0.267573E-01  0.359183E-01
  0.462687E-01  0.563976E-01  0.645383E-01  0.690864E-01  0.690864E-01  0.645383E-01
  0.563976E-01  0.462687E-01  0.372351E-01  0.282342E-01  0.208056E-01  0.151288E-01
  0.110206E-01  0.819528E-02  0.639471E-02  0.541288E-02  0.510404E-02  0.541288E-02
  0.639471E-02  0.819528E-02  0.110206E-01  0.151288E-01  0.208056E-01  0.282342E-01
  0.372351E-01  0.470032E-01  0.560579E-01  0.625561E-01  0.649291E-01  0.625561E-01
  0.560579E-01  0.470032E-01  0.372351E-01  0.300922E-01  0.227102E-01  0.167555E-01
  0.122451E-01  0.902873E-02  0.690556E-02  0.566279E-02  0.510404E-02  0.510404E-02
  0.566279E-02  0.690556E-02  0.902873E-02  0.122451E-01  0.167555E-01  0.227102E-01
  0.300922E-01  0.385102E-01  0.470113E-01  0.541122E-01  0.581998E-01  0.581998E-01
  0.541122E-01  0.470113E-01  0.385102E-01  0.300922E-01  0.251017E-01  0.190005E-01
  0.141550E-01  0.105428E-01  0.804268E-02  0.648219E-02  0.566279E-02  0.541288E-02
  0.566279E-02  0.648219E-02  0.804268E-02  0.105428E-01  0.141550E-01  0.190005E-01
  0.251017E-01  0.322599E-01  0.398839E-01  0.469031E-01  0.519390E-01  0.537802E-01
  0.519390E-01  0.469031E-01  0.398839E-01  0.322599E-01  0.251017E-01  0.218130E-01
  0.167596E-01  0.128357E-01  0.996963E-02  0.804268E-02  0.690556E-02  0.639471E-02
  0.639471E-02  0.690556E-02  0.804268E-02  0.996963E-02  0.128357E-01  0.167596E-01
  0.218130E-01  0.279313E-01  0.347513E-01  0.414895E-01  0.470113E-01  0.501478E-01
  0.501478E-01  0.470113E-01  0.414895E-01  0.347513E-01  0.279313E-01  0.218130E-01
  0.201031E-01  0.159903E-01  0.128357E-01  0.105428E-01  0.902873E-02  0.819528E-02
  0.793427E-02  0.819528E-02  0.902873E-02  0.105428E-01  0.128357E-01  0.159903E-01
  0.201031E-01  0.252290E-01  0.312032E-01  0.374665E-01  0.430841E-01  0.470032E-01
  0.484105E-01  0.470032E-01  0.430841E-01  0.374665E-01  0.312032E-01  0.252290E-01
  0.201031E-01  0.201031E-01  0.167596E-01  0.141550E-01  0.122451E-01  0.110206E-01
  0.104376E-01  0.104376E-01  0.110206E-01  0.122451E-01  0.141550E-01  0.167596E-01
  0.201031E-01  0.242824E-01  0.292876E-01  0.347698E-01  0.399898E-01  0.440580E-01
  0.462687E-01  0.462687E-01  0.440580E-01  0.399898E-01  0.347698E-01  0.292876E-01
  0.242824E-01  0.201031E-01  0.218130E-01  0.190005E-01  0.167555E-01  0.151288E-01
  0.141682E-01  0.138561E-01  0.141682E-01  0.151288E-01  0.167555E-01  0.190005E-01
  0.218130E-01  0.252290E-01  0.292876E-01  0.337888E-01  0.381722E-01  0.417268E-01
  0.439558E-01  0.447007E-01  0.439558E-01  0.417268E-01  0.381722E-01  0.337888E-01
  0.292876E-01  0.252290E-01  0.218130E-01  0.251017E-01  0.227102E-01  0.208056E-01
  0.194970E-01  0.188452E-01  0.188452E-01  0.194970E-01  0.208056E-01  0.227102E-01
  0.251017E-01  0.279313E-01  0.312032E-01  0.347698E-01  0.381722E-01  0.408161E-01
  0.423886E-01  0.430327E-01  0.430327E-01  0.423886E-01  0.408161E-01  0.381722E-01
  0.347698E-01  0.312032E-01  0.279313E-01  0.251017E-01  0.300922E-01  0.282342E-01
  0.267573E-01  0.258035E-01  0.254755E-01  0.258035E-01  0.267573E-01  0.282342E-01
  0.300922E-01  0.322599E-01  0.347513E-01  0.374665E-01  0.399898E-01  0.417268E-01
  0.423886E-01  0.423144E-01  0.421769E-01  0.423144E-01  0.423886E-01  0.417268E-01
  0.399898E-01  0.374665E-01  0.347513E-01  0.322599E-01  0.300922E-01  0.372351E-01
  0.359183E-01  0.347034E-01  0.339510E-01  0.339510E-01  0.347034E-01  0.359183E-01
  0.372351E-01  0.385102E-01  0.398839E-01  0.414895E-01  0.430841E-01  0.440580E-01
  0.439558E-01  0.430327E-01  0.421769E-01  0.421769E-01  0.430327E-01  0.439558E-01
  0.440580E-01  0.430841E-01  0.414895E-01  0.398839E-01  0.385102E-01  0.372351E-01
  0.462687E-01  0.447007E-01  0.430327E-01  0.423144E-01  0.430327E-01  0.447007E-01
  0.462687E-01  0.470032E-01  0.470113E-01  0.469031E-01  0.470113E-01  0.470032E-01
  0.462687E-01  0.447007E-01  0.430327E-01  0.423144E-01  0.430327E-01  0.447007E-01
  0.462687E-01  0.470032E-01  0.470113E-01  0.469031E-01  0.470113E-01  0.470032E-01
  0.462687E-01  0.542870E-01  0.506607E-01  0.478704E-01  0.478704E-01  0.506607E-01
  0.542870E-01  0.563976E-01  0.560579E-01  0.541122E-01  0.519390E-01  0.501478E-01
  0.484105E-01  0.462687E-01  0.439558E-01  0.423886E-01  0.423886E-01  0.439558E-01
  0.462687E-01  0.484105E-01  0.501478E-01  0.519390E-01  0.541122E-01  0.560579E-01
  0.563976E-01  0.542870E-01  0.553873E-01  0.484724E-01  0.455533E-01  0.484724E-01
  0.553873E-01  0.619772E-01  0.645383E-01  0.625561E-01  0.581998E-01  0.537802E-01
  0.501478E-01  0.470032E-01  0.440580E-01  0.417268E-01  0.408161E-01  0.417268E-01
  0.440580E-01  0.470032E-01  0.501478E-01  0.537802E-01  0.581998E-01  0.625561E-01
  0.645383E-01  0.619772E-01  0.553873E-01  0.452304E-01  0.369375E-01  0.369375E-01
  0.452304E-01  0.574297E-01  0.668471E-01  0.690864E-01  0.649291E-01  0.581998E-01
  0.519390E-01  0.470113E-01  0.430841E-01  0.399898E-01  0.381722E-01  0.381722E-01
  0.399898E-01  0.430841E-01  0.470113E-01  0.519390E-01  0.581998E-01  0.649291E-01
  0.690864E-01  0.668471E-01  0.574297E-01  0.452304E-01  0.275333E-01  0.222332E-01
  0.275333E-01  0.415564E-01  0.580059E-01  0.685039E-01  0.690864E-01  0.625561E-01
  0.541122E-01  0.469031E-01  0.414895E-01  0.374665E-01  0.347698E-01  0.337888E-01
  0.347698E-01  0.374665E-01  0.414895E-01  0.469031E-01  0.541122E-01  0.625561E-01
  0.690864E-01  0.685039E-01  0.580059E-01  0.415564E-01  0.275333E-01  0.121397E-01
  0.121397E-01  0.221777E-01  0.400791E-01  0.580059E-01  0.668471E-01  0.645383E-01
  0.560579E-01  0.470113E-01  0.398839E-01  0.347513E-01  0.312032E-01  0.292876E-01
  0.292876E-01  0.312032E-01  0.347513E-01  0.398839E-01  0.470113E-01  0.560579E-01
  0.645383E-01  0.668471E-01  0.580059E-01  0.400791E-01  0.221777E-01  0.121397E-01
  0.483535E-02  0.897966E-02  0.221777E-01  0.415564E-01  0.574297E-01  0.619772E-01
  0.563976E-01  0.470032E-01  0.385102E-01  0.322599E-01  0.279313E-01  0.252290E-01
  0.242824E-01  0.252290E-01  0.279313E-01  0.322599E-01  0.385102E-01  0.470032E-01
  0.563976E-01  0.619772E-01  0.574297E-01  0.415564E-01  0.221777E-01  0.897966E-02
  0.483535E-02  0.483535E-02  0.121397E-01  0.275333E-01  0.452304E-01  0.553873E-01
  0.542870E-01  0.462687E-01  0.372351E-01  0.300922E-01  0.251017E-01  0.218130E-01
  0.201031E-01  0.201031E-01  0.218130E-01  0.251017E-01  0.300922E-01  0.372351E-01
  0.462687E-01  0.542870E-01  0.553873E-01  0.452304E-01  0.275333E-01  0.121397E-01
  0.483535E-02  0.483535E-02  0.180388E-01  0.275333E-01  0.405716E-01  0.499593E-01
  0.505633E-01  0.439558E-01  0.351324E-01  0.275887E-01  0.221850E-01  0.185470E-01
  0.163464E-01  0.155913E-01  0.163464E-01  0.185470E-01  0.221850E-01  0.275887E-01
  0.351324E-01  0.439558E-01  0.505633E-01  0.499593E-01  0.405716E-01  0.275333E-01
  0.180388E-01  0.149156E-01  0.180388E-01  0.275333E-01  0.369375E-01  0.455533E-01
  0.478704E-01  0.430327E-01  0.347034E-01  0.267573E-01  0.208056E-01  0.167555E-01
  0.141550E-01  0.128357E-01  0.128357E-01  0.141550E-01  0.167555E-01  0.208056E-01
  0.267573E-01  0.347034E-01  0.430327E-01  0.478704E-01  0.455533E-01  0.369375E-01
  0.275333E-01  0.221777E-01  0.221777E-01  0.275333E-01  0.405716E-01  0.455533E-01
  0.466394E-01  0.421769E-01  0.342480E-01  0.261530E-01  0.197869E-01  0.153665E-01
  0.124543E-01  0.107370E-01  0.101585E-01  0.107370E-01  0.124543E-01  0.153665E-01
  0.197869E-01  0.261530E-01  0.342480E-01  0.421769E-01  0.466394E-01  0.455533E-01
  0.405716E-01  0.357153E-01  0.338450E-01  0.357153E-01  0.405716E-01  0.499593E-01
  0.478704E-01  0.421769E-01  0.340532E-01  0.258438E-01  0.191967E-01  0.144595E-01
  0.112729E-01  0.925840E-02  0.825970E-02  0.825970E-02  0.925840E-02  0.112729E-01
  0.144595E-01  0.191967E-01  0.258438E-01  0.340532E-01  0.421769E-01  0.478704E-01
  0.499593E-01  0.495090E-01  0.486142E-01  0.486142E-01  0.495090E-01  0.499593E-01
  0.505633E-01  0.430327E-01  0.342480E-01  0.258438E-01  0.190102E-01  0.140313E-01
  0.106051E-01  0.835025E-02  0.704557E-02  0.661510E-02  0.704557E-02  0.835025E-02
  0.106051E-01  0.140313E-01  0.190102E-01  0.258438E-01  0.342480E-01  0.430327E-01
  0.505633E-01  0.557684E-01  0.585887E-01  0.594540E-01  0.585887E-01  0.557684E-01
  0.505633E-01  0.439558E-01  0.347034E-01  0.261530E-01  0.191967E-01  0.140313E-01
  0.103945E-01  0.793184E-02  0.639515E-02  0.565420E-02  0.565420E-02  0.639515E-02
  0.793184E-02  0.103945E-01  0.140313E-01  0.191967E-01  0.261530E-01  0.347034E-01
  0.439558E-01  0.525250E-01  0.590419E-01  0.625373E-01  0.625373E-01  0.590419E-01
  0.525250E-01  0.439558E-01  0.351324E-01  0.267573E-01  0.197869E-01  0.144595E-01
  0.106051E-01  0.793184E-02  0.619448E-02  0.522412E-02  0.491373E-02  0.522412E-02
  0.619448E-02  0.793184E-02  0.106051E-01  0.144595E-01  0.197869E-01  0.267573E-01
  0.351324E-01  0.440580E-01  0.521411E-01  0.578203E-01  0.598685E-01  0.578203E-01
  0.521411E-01  0.440580E-01  0.351324E-01  0.275887E-01  0.208056E-01  0.153665E-01
  0.112729E-01  0.835025E-02  0.639515E-02  0.522412E-02  0.468523E-02  0.468523E-02
  0.522412E-02  0.639515E-02  0.835025E-02  0.112729E-01  0.153665E-01  0.208056E-01
  0.275887E-01  0.353233E-01  0.430841E-01  0.495063E-01  0.531745E-01  0.531745E-01
  0.495063E-01  0.430841E-01  0.353233E-01  0.275887E-01  0.221850E-01  0.167555E-01
  0.124543E-01  0.925840E-02  0.704557E-02  0.565420E-02  0.491373E-02  0.468523E-02
  0.491373E-02  0.565420E-02  0.704557E-02  0.925840E-02  0.124543E-01  0.167555E-01
  0.221850E-01  0.285505E-01  0.353040E-01  0.414895E-01  0.459070E-01  0.475179E-01
  0.459070E-01  0.414895E-01  0.353040E-01  0.285505E-01  0.221850E-01  0.185470E-01
  0.141550E-01  0.107370E-01  0.825970E-02  0.661510E-02  0.565420E-02  0.522412E-02
  0.522412E-02  0.565420E-02  0.661510E-02  0.825970E-02  0.107370E-01  0.141550E-01
  0.185470E-01  0.238077E-01  0.295967E-01  0.352623E-01  0.398839E-01  0.425060E-01
  0.425060E-01  0.398839E-01  0.352623E-01  0.295967E-01  0.238077E-01  0.185470E-01
  0.163464E-01  0.128357E-01  0.101585E-01  0.825970E-02  0.704557E-02  0.639515E-02
  0.619448E-02  0.639515E-02  0.704557E-02  0.825970E-02  0.101585E-01  0.128357E-01
  0.163464E-01  0.206681E-01  0.256115E-01  0.307278E-01  0.353040E-01  0.385102E-01
  0.396668E-01  0.385102E-01  0.353040E-01  0.307278E-01  0.256115E-01  0.206681E-01
  0.163464E-01  0.155913E-01  0.128357E-01  0.107370E-01  0.925840E-02  0.835025E-02
  0.793184E-02  0.793184E-02  0.835025E-02  0.925840E-02  0.107370E-01  0.128357E-01
  0.155913E-01  0.190362E-01  0.231214E-01  0.275841E-01  0.318875E-01  0.353233E-01
  0.372351E-01  0.372351E-01  0.353233E-01  0.318875E-01  0.275841E-01  0.231214E-01
  0.190362E-01  0.155913E-01  0.163464E-01  0.141550E-01  0.124543E-01  0.112729E-01
  0.106051E-01  0.103945E-01  0.106051E-01  0.112729E-01  0.124543E-01  0.141550E-01
  0.163464E-01  0.190362E-01  0.222523E-01  0.259017E-01  0.296400E-01  0.329083E-01
  0.351324E-01  0.359183E-01  0.351324E-01  0.329083E-01  0.296400E-01  0.259017E-01
  0.222523E-01  0.190362E-01  0.163464E-01  0.185470E-01  0.167555E-01  0.153665E-01
  0.144595E-01  0.140313E-01  0.140313E-01  0.144595E-01  0.153665E-01  0.167555E-01
  0.185470E-01  0.206681E-01  0.231214E-01  0.259017E-01  0.288376E-01  0.315518E-01
  0.336097E-01  0.347034E-01  0.347034E-01  0.336097E-01  0.315518E-01  0.288376E-01
  0.259017E-01  0.231214E-01  0.206681E-01  0.185470E-01  0.221850E-01  0.208056E-01
  0.197869E-01  0.191967E-01  0.190102E-01  0.191967E-01  0.197869E-01  0.208056E-01
  0.221850E-01  0.238077E-01  0.256115E-01  0.275841E-01  0.296400E-01  0.315518E-01
  0.330443E-01  0.339510E-01  0.342480E-01  0.339510E-01  0.330443E-01  0.315518E-01
  0.296400E-01  0.275841E-01  0.256115E-01  0.238077E-01  0.221850E-01  0.275887E-01
  0.267573E-01  0.261530E-01  0.258438E-01  0.258438E-01  0.261530E-01  0.267573E-01
  0.275887E-01  0.285505E-01  0.295967E-01  0.307278E-01  0.318875E-01  0.329083E-01
  0.336097E-01  0.339510E-01  0.340532E-01  0.340532E-01  0.339510E-01  0.336097E-01
  0.329083E-01  0.318875E-01  0.307278E-01  0.295967E-01  0.285505E-01  0.275887E-01
  0.351324E-01  0.347034E-01  0.342480E-01  0.340532E-01  0.342480E-01  0.347034E-01
  0.351324E-01  0.353233E-01  0.353040E-01  0.352623E-01  0.353040E-01  0.353233E-01
  0.351324E-01  0.347034E-01  0.342480E-01  0.340532E-01  0.342480E-01  0.347034E-01
  0.351324E-01  0.353233E-01  0.353040E-01  0.352623E-01  0.353040E-01  0.353233E-01
  0.351324E-01  0.439558E-01  0.430327E-01  0.421769E-01  0.421769E-01  0.430327E-01
  0.439558E-01  0.440580E-01  0.430841E-01  0.414895E-01  0.398839E-01  0.385102E-01
  0.372351E-01  0.359183E-01  0.347034E-01  0.339510E-01  0.339510E-01  0.347034E-01
  0.359183E-01  0.372351E-01  0.385102E-01  0.398839E-01  0.414895E-01  0.430841E-01
  0.440580E-01  0.439558E-01  0.505633E-01  0.478704E-01  0.466394E-01  0.478704E-01
  0.505633E-01  0.525250E-01  0.521411E-01  0.495063E-01  0.459070E-01  0.425060E-01
  0.396668E-01  0.372351E-01  0.351324E-01  0.336097E-01  0.330443E-01  0.336097E-01
  0.351324E-01  0.372351E-01  0.396668E-01  0.425060E-01  0.459070E-01  0.495063E-01
  0.521411E-01  0.525250E-01  0.505633E-01  0.499593E-01  0.455533E-01  0.455533E-01
  0.499593E-01  0.557684E-01  0.590419E-01  0.578203E-01  0.531745E-01  0.475179E-01
  0.425060E-01  0.385102E-01  0.353233E-01  0.329083E-01  0.315518E-01  0.315518E-01
  0.329083E-01  0.353233E-01  0.385102E-01  0.425060E-01  0.475179E-01  0.531745E-01
  0.578203E-01  0.590419E-01  0.557684E-01  0.499593E-01  0.405716E-01  0.369375E-01
  0.405716E-01  0.495090E-01  0.585887E-01  0.625373E-01  0.598685E-01  0.531745E-01
  0.459070E-01  0.398839E-01  0.353040E-01  0.318875E-01  0.296400E-01  0.288376E-01
  0.296400E-01  0.318875E-01  0.353040E-01  0.398839E-01  0.459070E-01  0.531745E-01
  0.598685E-01  0.625373E-01  0.585887E-01  0.495090E-01  0.405716E-01  0.275333E-01
  0.275333E-01  0.357153E-01  0.486142E-01  0.594540E-01  0.625373E-01  0.578203E-01
  0.495063E-01  0.414895E-01  0.352623E-01  0.307278E-01  0.275841E-01  0.259017E-01
  0.259017E-01  0.275841E-01  0.307278E-01  0.352623E-01  0.414895E-01  0.495063E-01
  0.578203E-01  0.625373E-01  0.594540E-01  0.486142E-01  0.357153E-01  0.275333E-01
  0.180388E-01  0.221777E-01  0.338450E-01  0.486142E-01  0.585887E-01  0.590419E-01
  0.521411E-01  0.430841E-01  0.353040E-01  0.295967E-01  0.256115E-01  0.231214E-01
  0.222523E-01  0.231214E-01  0.256115E-01  0.295967E-01  0.353040E-01  0.430841E-01
  0.521411E-01  0.590419E-01  0.585887E-01  0.486142E-01  0.338450E-01  0.221777E-01
  0.180388E-01  0.149156E-01  0.221777E-01  0.357153E-01  0.495090E-01  0.557684E-01
  0.525250E-01  0.440580E-01  0.353233E-01  0.285505E-01  0.238077E-01  0.206681E-01
  0.190362E-01  0.190362E-01  0.206681E-01  0.238077E-01  0.285505E-01  0.353233E-01
  0.440580E-01  0.525250E-01  0.557684E-01  0.495090E-01  0.357153E-01  0.221777E-01
  0.149156E-01  0.149156E-01  0.180388E-01  0.275333E-01  0.405716E-01  0.499593E-01
  0.505633E-01  0.439558E-01  0.351324E-01  0.275887E-01  0.221850E-01  0.185470E-01
  0.163464E-01  0.155913E-01  0.163464E-01  0.185470E-01  0.221850E-01  0.275887E-01
  0.351324E-01  0.439558E-01  0.505633E-01  0.499593E-01  0.405716E-01  0.275333E-01
  0.180388E-01  0.149156E-01  0.180388E-01  0.387281E-01  0.452304E-01  0.499593E-01
  0.489753E-01  0.423886E-01  0.336097E-01  0.257789E-01  0.200185E-01  0.160936E-01
  0.135642E-01  0.122812E-01  0.122812E-01  0.135642E-01  0.160936E-01  0.200185E-01
  0.257789E-01  0.336097E-01  0.423886E-01  0.489753E-01  0.499593E-01  0.452304E-01
  0.387281E-01  0.346461E-01  0.346461E-01  0.387281E-01  0.452304E-01  0.484724E-01
  0.478704E-01  0.423144E-01  0.339510E-01  0.258035E-01  0.194970E-01  0.151288E-01
  0.122451E-01  0.105428E-01  0.996963E-02  0.105428E-01  0.122451E-01  0.151288E-01
  0.194970E-01  0.258035E-01  0.339510E-01  0.423144E-01  0.478704E-01  0.484724E-01
  0.452304E-01  0.415564E-01  0.400791E-01  0.415564E-01  0.452304E-01  0.499593E-01
  0.478704E-01  0.421769E-01  0.340532E-01  0.258438E-01  0.191967E-01  0.144595E-01
  0.112729E-01  0.925840E-02  0.825970E-02  0.825970E-02  0.925840E-02  0.112729E-01
  0.144595E-01  0.191967E-01  0.258438E-01  0.340532E-01  0.421769E-01  0.478704E-01
  0.499593E-01  0.495090E-01  0.486142E-01  0.486142E-01  0.495090E-01  0.499593E-01
  0.489753E-01  0.423144E-01  0.340532E-01  0.258647E-01  0.190810E-01  0.140995E-01
  0.106654E-01  0.840512E-02  0.709650E-02  0.666438E-02  0.709650E-02  0.840512E-02
  0.106654E-01  0.140995E-01  0.190810E-01  0.258647E-01  0.340532E-01  0.423144E-01
  0.489753E-01  0.531505E-01  0.551366E-01  0.556831E-01  0.551366E-01  0.531505E-01
  0.489753E-01  0.423886E-01  0.339510E-01  0.258438E-01  0.190810E-01  0.139922E-01
  0.103873E-01  0.793594E-02  0.639901E-02  0.565476E-02  0.565476E-02  0.639901E-02
  0.793594E-02  0.103873E-01  0.139922E-01  0.190810E-01  0.258438E-01  0.339510E-01
  0.423886E-01  0.498153E-01  0.551650E-01  0.579142E-01  0.579142E-01  0.551650E-01
  0.498153E-01  0.423886E-01  0.336097E-01  0.258035E-01  0.191967E-01  0.140995E-01
  0.103873E-01  0.778947E-02  0.608013E-02  0.511354E-02  0.480195E-02  0.511354E-02
  0.608013E-02  0.778947E-02  0.103873E-01  0.140995E-01  0.191967E-01  0.258035E-01
  0.336097E-01  0.417268E-01  0.488718E-01  0.537668E-01  0.555061E-01  0.537668E-01
  0.488718E-01  0.417268E-01  0.336097E-01  0.257789E-01  0.194970E-01  0.144595E-01
  0.106654E-01  0.793594E-02  0.608013E-02  0.494550E-02  0.441421E-02  0.441421E-02
  0.494550E-02  0.608013E-02  0.793594E-02  0.106654E-01  0.144595E-01  0.194970E-01
  0.257789E-01  0.329083E-01  0.399898E-01  0.457777E-01  0.490508E-01  0.490508E-01
  0.457777E-01  0.399898E-01  0.329083E-01  0.257789E-01  0.200185E-01  0.151288E-01
  0.112729E-01  0.840512E-02  0.639901E-02  0.511354E-02  0.441421E-02  0.419502E-02
  0.441421E-02  0.511354E-02  0.639901E-02  0.840512E-02  0.112729E-01  0.151288E-01
  0.200185E-01  0.257759E-01  0.318875E-01  0.374665E-01  0.414323E-01  0.428738E-01
  0.414323E-01  0.374665E-01  0.318875E-01  0.257759E-01  0.200185E-01  0.160936E-01