
     Program PWSCF v.6.7MaX starts on 30Apr2026 at 15:28:58 

     This program is part of the open-source Quantum ESPRESSO suite
     for quantum simulation of materials; please cite
         "P. Giannozzi et al., J. Phys.:Condens. Matter 21 395502 (2009);
         "P. Giannozzi et al., J. Phys.:Condens. Matter 29 465901 (2017);
          URL http://www.quantum-espresso.org", 
     in publications or presentations arising from this work. More details at
     http://www.quantum-espresso.org/quote

     Parallel version (MPI & OpenMP), running on       4 processor cores
     Number of MPI processes:                 4
     Threads/MPI process:                     1

     MPI processes distributed on     1 nodes
     R & G space division:  proc/nbgrp/npool/nimage =       4
     Waiting for input...
     Reading input from standard input

     Current dimensions of program PWSCF are:
     Max number of different atomic species (ntypx) = 10
     Max number of k-points (npk) =  40000
     Max angular momentum in pseudopotentials (lmaxx) =  3

     Subspace diagonalization in iterative solution of the eigenvalue problem:
     a serial algorithm will be used


     Parallelization info
     --------------------
     sticks:   dense  smooth     PW     G-vecs:    dense   smooth      PW
     Min         622     250     70                91436    23119    3530
     Max         624     251     71                91439    23123    3541
     Sum        2491    1003    283               365747    92485   14145



     bravais-lattice index     =            4
     lattice parameter (alat)  =       7.7479  a.u.
     unit-cell volume          =    1473.6224 (a.u.)^3
     number of atoms/cell      =            2
     number of atomic types    =            1
     number of electrons       =        30.00
     number of Kohn-Sham states=           20
     kinetic-energy cutoff     =      60.0000  Ry
     charge density cutoff     =     600.0000  Ry
     scf convergence threshold =      1.0E-06
     mixing beta               =       0.7000
     number of iterations used =            8  plain     mixing
     energy convergence thresh.=      1.0E-04
     force convergence thresh. =      1.0E-03
     press convergence thresh. =      1.0E-03
     Exchange-correlation= SLA  PW   PSX  PSC
                           (   1   4  10   8   0   0   0)
     nstep                     =           50


     celldm(1)=   7.747877  celldm(2)=   0.000000  celldm(3)=   3.658537
     celldm(4)=   0.000000  celldm(5)=   0.000000  celldm(6)=   0.000000

     crystal axes: (cart. coord. in units of alat)
               a(1) = (   1.000000   0.000000   0.000000 )  
               a(2) = (  -0.500000   0.866025   0.000000 )  
               a(3) = (   0.000000   0.000000   3.658537 )  

     reciprocal axes: (cart. coord. in units 2 pi/alat)
               b(1) = (  1.000000  0.577350 -0.000000 )  
               b(2) = (  0.000000  1.154701  0.000000 )  
               b(3) = (  0.000000 -0.000000  0.273333 )  


     PseudoPot. # 1 for Sb read from file:
     /Users/cdhogan/Research/Codes/espresso/PSEUDO/GBRV-PBEsol-1.5/sb_pbesol_v1.4.uspp.F.UPF
     MD5 check sum: b66a27f2c95be5fc87b0bb5ef8c6d7fd
     Pseudo is Ultrasoft + core correction, Zval = 15.0
     Generated by new atomic code, or converted to UPF format
     Using radial grid of  891 points,  6 beta functions with: 
                l(1) =   0
                l(2) =   0
                l(3) =   1
                l(4) =   1
                l(5) =   2
                l(6) =   2
     Q(r) pseudized with  8 coefficients,  rinner =    1.350   1.350   1.350
                                                       1.350   1.350

     atomic species   valence    mass     pseudopotential
        Sb            15.00    12.01100     Sb( 1.00)

      6 Sym. Ops. (no inversion) found


                                    s                        frac. trans.

      isym =  1     identity                                     

 cryst.   s( 1) = (     1          0          0      )
                  (     0          1          0      )
                  (     0          0          1      )

 cart.    s( 1) = (  1.0000000  0.0000000  0.0000000 )
                  (  0.0000000  1.0000000  0.0000000 )
                  (  0.0000000  0.0000000  1.0000000 )


      isym =  2     120 deg rotation - cryst. axis [0,0,1]       

 cryst.   s( 2) = (     0          1          0      )
                  (    -1         -1          0      )
                  (     0          0          1      )

 cart.    s( 2) = ( -0.5000000 -0.8660254  0.0000000 )
                  (  0.8660254 -0.5000000  0.0000000 )
                  (  0.0000000  0.0000000  1.0000000 )


      isym =  3     120 deg rotation - cryst. axis [0,0,-1]      

 cryst.   s( 3) = (    -1         -1          0      )
                  (     1          0          0      )
                  (     0          0          1      )

 cart.    s( 3) = ( -0.5000000  0.8660254  0.0000000 )
                  ( -0.8660254 -0.5000000  0.0000000 )
                  (  0.0000000  0.0000000  1.0000000 )


      isym =  4     inv. 180 deg rotation - cart. axis [1,0,0]   

 cryst.   s( 4) = (    -1          0          0      )
                  (     1          1          0      )
                  (     0          0          1      )

 cart.    s( 4) = ( -1.0000000  0.0000000  0.0000000 )
                  (  0.0000000  1.0000000  0.0000000 )
                  (  0.0000000  0.0000000  1.0000000 )


      isym =  5     inv. 180 deg rotation - cryst. axis [0,1,0]  

 cryst.   s( 5) = (     1          1          0      )
                  (     0         -1          0      )
                  (     0          0          1      )

 cart.    s( 5) = (  0.5000000  0.8660254  0.0000000 )
                  (  0.8660254 -0.5000000  0.0000000 )
                  (  0.0000000  0.0000000  1.0000000 )


      isym =  6     inv. 180 deg rotation - cryst. axis [1,1,0]  

 cryst.   s( 6) = (     0         -1          0      )
                  (    -1          0          0      )
                  (     0          0          1      )

 cart.    s( 6) = (  0.5000000 -0.8660254  0.0000000 )
                  ( -0.8660254 -0.5000000  0.0000000 )
                  (  0.0000000  0.0000000  1.0000000 )


     point group C_3v (3m)  
     there are  3 classes
     the character table:

       E     2C3   3s_v 
A_1    1.00  1.00  1.00
A_2    1.00  1.00 -1.00
E      2.00 -1.00  0.00

     the symmetry operations in each class and the name of the first element:

     E        1
          identity                                               
     2C3      2    3
          120 deg rotation - cryst. axis [0,0,1]                 
     3s_v     4    5    6
          inv. 180 deg rotation - cart. axis [1,0,0]             

   Cartesian axes

     site n.     atom                  positions (alat units)
         1           Sb  tau(   1) = (   0.0000000   0.0000000   1.8292683  )
         2           Sb  tau(   2) = (  -0.0000000   0.5773503   2.2263073  )

   Crystallographic axes

     site n.     atom                  positions (cryst. coord.)
         1           Sb  tau(   1) = (  0.0000000  0.0000000  0.5000000  )
         2           Sb  tau(   2) = (  0.3333333  0.6666667  0.6085240  )

     number of k points=    12
                       cart. coord. in units 2pi/alat
        k(    1) = (   0.0000000   0.0000000   0.0000000), wk =   0.0246914
        k(    2) = (   0.0000000   0.1283001   0.0000000), wk =   0.1481481
        k(    3) = (   0.0000000   0.2566001   0.0000000), wk =   0.1481481
        k(    4) = (   0.0000000   0.3849002   0.0000000), wk =   0.1481481
        k(    5) = (   0.0000000   0.5132002   0.0000000), wk =   0.1481481
        k(    6) = (   0.1111111   0.1924501   0.0000000), wk =   0.1481481
        k(    7) = (   0.1111111   0.3207501   0.0000000), wk =   0.2962963
        k(    8) = (   0.1111111   0.4490502   0.0000000), wk =   0.2962963
        k(    9) = (   0.1111111   0.5773503   0.0000000), wk =   0.1481481
        k(   10) = (   0.2222222   0.3849002   0.0000000), wk =   0.1481481
        k(   11) = (   0.2222222   0.5132002   0.0000000), wk =   0.2962963
        k(   12) = (   0.3333333   0.5773503   0.0000000), wk =   0.0493827

                       cryst. coord.
        k(    1) = (   0.0000000   0.0000000   0.0000000), wk =   0.0246914
        k(    2) = (   0.0000000   0.1111111   0.0000000), wk =   0.1481481
        k(    3) = (   0.0000000   0.2222222   0.0000000), wk =   0.1481481
        k(    4) = (   0.0000000   0.3333333   0.0000000), wk =   0.1481481
        k(    5) = (   0.0000000   0.4444444   0.0000000), wk =   0.1481481
        k(    6) = (   0.1111111   0.1111111   0.0000000), wk =   0.1481481
        k(    7) = (   0.1111111   0.2222222   0.0000000), wk =   0.2962963
        k(    8) = (   0.1111111   0.3333333   0.0000000), wk =   0.2962963
        k(    9) = (   0.1111111   0.4444444   0.0000000), wk =   0.1481481
        k(   10) = (   0.2222222   0.2222222   0.0000000), wk =   0.1481481
        k(   11) = (   0.2222222   0.3333333   0.0000000), wk =   0.2962963
        k(   12) = (   0.3333333   0.3333333   0.0000000), wk =   0.0493827

     Dense  grid:   365747 G-vectors     FFT dimensions: (  64,  64, 225)

     Smooth grid:    92485 G-vectors     FFT dimensions: (  40,  40, 144)

     Dynamical RAM for                 wfc:       0.88 MB

     Dynamical RAM for     wfc (w. buffer):      11.47 MB

     Dynamical RAM for           str. fact:       1.40 MB

     Dynamical RAM for           local pot:       0.00 MB

     Dynamical RAM for          nlocal pot:       1.59 MB

     Dynamical RAM for                qrad:       3.93 MB

     Dynamical RAM for          rho,v,vnew:       9.53 MB

     Dynamical RAM for               rhoin:       3.18 MB

     Dynamical RAM for            rho*nmix:      22.32 MB

     Dynamical RAM for           G-vectors:       5.41 MB

     Dynamical RAM for          h,s,v(r/c):       0.07 MB

     Dynamical RAM for          <psi|beta>:       0.01 MB

     Dynamical RAM for                 psi:       1.76 MB

     Dynamical RAM for                hpsi:       1.76 MB

     Dynamical RAM for                spsi:       1.76 MB

     Dynamical RAM for      wfcinit/wfcrot:       1.77 MB

     Dynamical RAM for           addusdens:     262.30 MB

     Dynamical RAM for          addusforce:     265.79 MB

     Dynamical RAM for         addusstress:     280.44 MB

     Estimated static dynamical RAM per process >      70.52 MB

     Estimated max dynamical RAM per process >     350.95 MB

     Estimated total dynamical RAM >       1.37 GB

     Initial potential from superposition of free atoms

     starting charge   27.99998, renormalised to   30.00000

     negative rho (up, down):  2.170E-03 0.000E+00
     Starting wfcs are   18 randomized atomic wfcs +    2 random wfcs

     total cpu time spent up to now is        1.7 secs

     Self-consistent Calculation

     iteration #  1     ecut=    60.00 Ry     beta= 0.70
     Davidson diagonalization with overlap
     ethr =  1.00E-02,  avg # of iterations =  7.5

     negative rho (up, down):  1.246E-05 0.000E+00

     total cpu time spent up to now is        3.6 secs

     total energy              =    -368.29581693 Ry
     estimated scf accuracy    <       2.28991152 Ry

     iteration #  2     ecut=    60.00 Ry     beta= 0.70
     Davidson diagonalization with overlap
     ethr =  7.63E-03,  avg # of iterations =  2.7

     negative rho (up, down):  1.657E-07 0.000E+00

     total cpu time spent up to now is        5.1 secs

     total energy              =    -369.09176459 Ry
     estimated scf accuracy    <       0.41320945 Ry

     iteration #  3     ecut=    60.00 Ry     beta= 0.70
     Davidson diagonalization with overlap
     ethr =  1.38E-03,  avg # of iterations =  2.2

     total cpu time spent up to now is        6.4 secs

     total energy              =    -369.17392951 Ry
     estimated scf accuracy    <       0.00700469 Ry

     iteration #  4     ecut=    60.00 Ry     beta= 0.70
     Davidson diagonalization with overlap
     ethr =  2.33E-05,  avg # of iterations =  6.8

     total cpu time spent up to now is        8.1 secs

     total energy              =    -369.17475730 Ry
     estimated scf accuracy    <       0.00080219 Ry

     iteration #  5     ecut=    60.00 Ry     beta= 0.70
     Davidson diagonalization with overlap
     c_bands:  1 eigenvalues not converged
     c_bands:  1 eigenvalues not converged
     ethr =  2.67E-06,  avg # of iterations =  8.7

     negative rho (up, down):  1.380E-06 0.000E+00

     total cpu time spent up to now is        9.8 secs

     total energy              =    -369.17433475 Ry
     estimated scf accuracy    <       0.00620971 Ry

     iteration #  6     ecut=    60.00 Ry     beta= 0.70
     Davidson diagonalization with overlap
     ethr =  2.67E-06,  avg # of iterations =  5.4

     negative rho (up, down):  2.170E-06 0.000E+00

     total cpu time spent up to now is       11.2 secs

     total energy              =    -369.17507261 Ry
     estimated scf accuracy    <       0.00001775 Ry

     iteration #  7     ecut=    60.00 Ry     beta= 0.70
     Davidson diagonalization with overlap
     ethr =  5.92E-08,  avg # of iterations =  2.0

     negative rho (up, down):  3.400E-06 0.000E+00

     total cpu time spent up to now is       12.6 secs

     End of self-consistent calculation

          k = 0.0000 0.0000 0.0000 ( 11637 PWs)   bands (ev):

   -29.4568 -29.4568 -29.3801 -29.3801 -29.3374 -29.2684 -29.2684 -29.2337
   -29.1867 -29.1867 -12.3202  -7.2763  -1.5380  -0.9425  -0.9425   0.6355
     1.8700   1.8700   3.5412   3.5989

     occupation numbers 
     1.0000   1.0000   1.0000   1.0000   1.0000   1.0000   1.0000   1.0000
     1.0000   1.0000   1.0000   1.0000   1.0000   1.0000   1.0000   0.0000
     0.0000   0.0000   0.0000   0.0000

          k = 0.0000 0.1283 0.0000 ( 11597 PWs)   bands (ev):

   -29.4560 -29.4503 -29.3792 -29.3760 -29.3356 -29.2713 -29.2687 -29.2354
   -29.1942 -29.1871 -12.1870  -7.2728  -2.0532  -1.4836  -1.2317   1.1366
     1.9315   2.1454   3.6855   3.7766

     occupation numbers 
     1.0000   1.0000   1.0000   1.0000   1.0000   1.0000   1.0000   1.0000
     1.0000   1.0000   1.0000   1.0000   1.0000   1.0000   1.0000   0.0000
     0.0000   0.0000   0.0000   0.0000

          k = 0.0000 0.2566 0.0000 ( 11589 PWs)   bands (ev):

   -29.4537 -29.4319 -29.3772 -29.3645 -29.3294 -29.2796 -29.2704 -29.2408
   -29.2145 -29.1882 -11.7958  -7.3757  -3.3727  -1.7768  -1.4412   0.5106
     2.5384   2.5842   4.0178   4.1842

     occupation numbers 
     1.0000   1.0000   1.0000   1.0000   1.0000   1.0000   1.0000   1.0000
     1.0000   1.0000   1.0000   1.0000   1.0000   1.0000   1.0000   0.0000
     0.0000   0.0000   0.0000   0.0000

          k = 0.0000 0.3849 0.0000 ( 11562 PWs)   bands (ev):

   -29.4510 -29.4070 -29.3726 -29.3479 -29.3194 -29.2927 -29.2755 -29.2560
   -29.2347 -29.1894 -11.1835  -7.8631  -4.0017  -2.2386  -1.7754   0.3232
     2.1371   2.6683   4.5166   4.6891

     occupation numbers 
     1.0000   1.0000   1.0000   1.0000   1.0000   1.0000   1.0000   1.0000
     1.0000   1.0000   1.0000   1.0000   1.0000   1.0000   1.0000   0.0000
     0.0000   0.0000   0.0000   0.0000

          k = 0.0000 0.5132 0.0000 ( 11528 PWs)   bands (ev):

   -29.4492 -29.3921 -29.3570 -29.3288 -29.3119 -29.3095 -29.2849 -29.2793
   -29.2406 -29.1903 -10.5122  -8.6049  -3.9709  -2.4899  -2.3217   0.5900
     1.6131   2.6545   4.2426   5.6210

     occupation numbers 
     1.0000   1.0000   1.0000   1.0000   1.0000   1.0000   1.0000   1.0000
     1.0000   1.0000   1.0000   1.0000   1.0000   1.0000   1.0000   0.0000
     0.0000   0.0000   0.0000   0.0000

          k = 0.1111 0.1925 0.0000 ( 11609 PWs)   bands (ev):

   -29.4545 -29.4376 -29.3771 -29.3691 -29.3314 -29.2774 -29.2691 -29.2390
   -29.2081 -29.1880 -11.9245  -7.3196  -2.9724  -1.9121  -1.4106   1.3061
     1.7290   2.7868   3.9452   4.0600

     occupation numbers 
     1.0000   1.0000   1.0000   1.0000   1.0000   1.0000   1.0000   1.0000
     1.0000   1.0000   1.0000   1.0000   1.0000   1.0000   1.0000   0.0000
     0.0000   0.0000   0.0000   0.0000

          k = 0.1111 0.3208 0.0000 ( 11566 PWs)   bands (ev):

   -29.4521 -29.4148 -29.3734 -29.3573 -29.3221 -29.2893 -29.2708 -29.2484
   -29.2298 -29.1895 -11.4181  -7.6164  -3.7334  -2.6568  -1.4910   0.9151
     2.1243   2.6704   4.3695   4.5453

     occupation numbers 
     1.0000   1.0000   1.0000   1.0000   1.0000   1.0000   1.0000   1.0000
     1.0000   1.0000   1.0000   1.0000   1.0000   1.0000   1.0000   0.0000
     0.0000   0.0000   0.0000   0.0000

          k = 0.1111 0.4491 0.0000 ( 11528 PWs)   bands (ev):

   -29.4499 -29.3917 -29.3645 -29.3413 -29.3111 -29.3051 -29.2768 -29.2715
   -29.2415 -29.1909 -10.7375  -8.2961  -3.9749  -2.9885  -1.9700   0.9550
     1.9141   2.3981   4.5979   5.2672

     occupation numbers 
     1.0000   1.0000   1.0000   1.0000   1.0000   1.0000   1.0000   1.0000
     1.0000   1.0000   1.0000   1.0000   1.0000   1.0000   1.0000   0.0000
     0.0000   0.0000   0.0000   0.0000

          k = 0.1111 0.5774 0.0000 ( 11540 PWs)   bands (ev):

   -29.4490 -29.3851 -29.3489 -29.3264 -29.3230 -29.3066 -29.2884 -29.2800
   -29.2440 -29.1915 -10.2627  -8.8182  -3.9822  -2.9033  -2.4183   1.3498
     1.3941   2.4188   4.3367   6.3175

     occupation numbers 
     1.0000   1.0000   1.0000   1.0000   1.0000   1.0000   1.0000   1.0000
     1.0000   1.0000   1.0000   1.0000   1.0000   1.0000   1.0000   0.0000
     0.0000   0.0000   0.0000   0.0000

          k = 0.2222 0.3849 0.0000 ( 11545 PWs)   bands (ev):

   -29.4504 -29.3897 -29.3666 -29.3489 -29.3098 -29.3054 -29.2705 -29.2683
   -29.2433 -29.1917 -10.8238  -8.1439  -3.6821  -3.6467  -1.7744   1.3564
     1.5633   2.9422   4.8612   5.2008

     occupation numbers 
     1.0000   1.0000   1.0000   1.0000   1.0000   1.0000   1.0000   1.0000
     1.0000   1.0000   1.0000   1.0000   1.0000   1.0000   1.0000   0.0000
     0.0000   0.0000   0.0000   0.0000

          k = 0.2222 0.5132 0.0000 ( 11566 PWs)   bands (ev):

   -29.4492 -29.3712 -29.3527 -29.3353 -29.3256 -29.3001 -29.2935 -29.2709
   -29.2507 -29.1933 -10.1345  -8.8402  -4.2400  -3.2154  -2.3064   0.8822
     2.1467   2.7315   5.0853   6.0404

     occupation numbers 
     1.0000   1.0000   1.0000   1.0000   1.0000   1.0000   1.0000   1.0000
     1.0000   1.0000   1.0000   1.0000   1.0000   1.0000   1.0000   0.0000
     0.0000   0.0000   0.0000   0.0000

          k = 0.3333 0.5774 0.0000 ( 11556 PWs)   bands (ev):

   -29.4489 -29.3494 -29.3489 -29.3475 -29.3183 -29.3168 -29.2943 -29.2621
   -29.2611 -29.1945  -9.4685  -9.4681  -4.5323  -2.7563  -2.7560   0.5419
     2.6857   2.6862   5.7457   6.4297

     occupation numbers 
     1.0000   1.0000   1.0000   1.0000   1.0000   1.0000   1.0000   1.0000
     1.0000   1.0000   1.0000   1.0000   1.0000   1.0000   1.0000   0.0000
     0.0000   0.0000   0.0000   0.0000

     highest occupied, lowest unoccupied level (ev):    -0.9425    0.3232

!    total energy              =    -369.17507628 Ry
     estimated scf accuracy    <       0.00000037 Ry

     The total energy is the sum of the following terms:
     one-electron contribution =    -797.46422331 Ry
     hartree contribution      =     404.04077944 Ry
     xc contribution           =     -87.04685861 Ry
     ewald contribution        =     111.29522620 Ry

     convergence has been achieved in   7 iterations

     negative rho (up, down):  3.400E-06 0.000E+00

     Forces acting on atoms (cartesian axes, Ry/au):

     atom    1 type  1   force =     0.00000000    0.00000000    0.00406847
     atom    2 type  1   force =     0.00000000    0.00000000   -0.00406847
     The non-local contrib.  to forces
     atom    1 type  1   force =     0.00000000   -0.00000000    0.52454243
     atom    2 type  1   force =     0.00000000   -0.00000000   -0.52489787
     The ionic contribution  to forces
     atom    1 type  1   force =    -0.00000001    0.00000001  -35.03891864
     atom    2 type  1   force =     0.00000001   -0.00000001   35.03891864
     The local contribution  to forces
     atom    1 type  1   force =    -0.00000000   -0.00000000   34.51972603
     atom    2 type  1   force =     0.00000040   -0.00000023  -34.51609310
     The core correction contribution to forces
     atom    1 type  1   force =     0.00000000   -0.00000000    0.00044282
     atom    2 type  1   force =     0.00000004   -0.00000002   -0.00038900
     The Hubbard contrib.    to forces
     atom    1 type  1   force =     0.00000000    0.00000000    0.00000000
     atom    2 type  1   force =     0.00000000    0.00000000    0.00000000
     The SCF correction term to forces
     atom    1 type  1   force =     0.00000000   -0.00000000   -0.00000000
     atom    2 type  1   force =    -0.00000000    0.00000000   -0.00275402

     Total force =     0.004068     Total SCF correction =     0.002754
     SCF correction compared to forces is large: reduce conv_thr to get better values


     Computing stress (Cartesian axis) and pressure


     negative rho (up, down):  3.400E-06 0.000E+00
          total   stress  (Ry/bohr**3)                   (kbar)     P=       -3.72
  -0.00003172   0.00000000   0.00000000           -4.67        0.00        0.00
   0.00000000  -0.00003172   0.00000000            0.00       -4.67        0.00
   0.00000000   0.00000000  -0.00001247            0.00        0.00       -1.83

     kinetic stress (kbar)   4740.32      0.00      0.00
                                0.00   4740.32      0.00
                                0.00      0.00   4768.40

     local   stress (kbar) -61372.16      0.00     -0.00
                                0.00 -61372.16      0.00
                               -0.00      0.00  61871.34

     nonloc. stress (kbar)     39.61      0.00      0.00
                                0.00     39.61     -0.00
                                0.00     -0.00     57.69

     hartree stress (kbar)  33324.82     -0.00     -0.00
                               -0.00  33324.82     -0.00
                               -0.00     -0.00 -26316.08

     exc-cor stress (kbar)   2889.05     -0.00      0.00
                               -0.00   2889.05     -0.00
                                0.00     -0.00   2888.17

     corecor stress (kbar)  -4544.52      0.00      0.00
                                0.00  -4544.52     -0.00
                                0.00     -0.00  -4545.04

     ewald   stress (kbar)  24918.22     -0.00      0.00
                               -0.00  24918.22     -0.00
                                0.00     -0.00 -38726.33

     hubbard stress (kbar)      0.00      0.00      0.00
                                0.00      0.00      0.00
                                0.00      0.00      0.00

     DFT-D   stress (kbar)      0.00      0.00      0.00
                                0.00      0.00      0.00
                                0.00      0.00      0.00

     XDM     stress (kbar)      0.00      0.00      0.00
                                0.00      0.00      0.00
                                0.00      0.00      0.00

     dft-nl  stress (kbar)      0.00      0.00      0.00
                                0.00      0.00      0.00
                                0.00      0.00      0.00

     TS-vdW  stress (kbar)      0.00      0.00      0.00
                                0.00      0.00      0.00
                                0.00      0.00      0.00



     BFGS Geometry Optimization
     Energy error            =      0.0E+00
     Gradient error          =      4.1E-03
     Cell gradient error     =      3.2E-05


     number of scf cycles    =   1
     number of bfgs steps    =   0

     enthalpy new            =    -369.1750762837 Ry

     new trust radius        =       0.0060886684 bohr
     new conv_thr            =       0.0000010000 Ry

     new unit-cell volume =   1471.28599 a.u.^3 (   218.02209 Ang^3 )
     density =      0.18296 g/cm^3

CELL_PARAMETERS (alat=  7.74787711)
   0.999206952   0.000000000   0.000000000
  -0.499603476   0.865338604   0.000000000
   0.000000000   0.000000000   3.658536585

ATOMIC_POSITIONS (crystal)
Sb            0.0000000000        0.0000000000        0.5000000000    0   0   0
Sb            0.3333333330        0.6666666670        0.6083804706



     Writing output data file ./tmp/Sb.save/
     NEW-OLD atomic charge density approx. for the potential

     negative rho (up, down):  3.973E-05 0.000E+00
     extrapolated charge   29.95554, renormalised to   30.00000

     total cpu time spent up to now is       18.1 secs

     Self-consistent Calculation

     iteration #  1     ecut=    60.00 Ry     beta= 0.70
     Davidson diagonalization with overlap
     ethr =  1.00E-06,  avg # of iterations =  7.3

     negative rho (up, down):  1.264E-05 0.000E+00

     total cpu time spent up to now is       20.2 secs

     total energy              =    -369.17371733 Ry
     estimated scf accuracy    <       0.00099405 Ry

     iteration #  2     ecut=    60.00 Ry     beta= 0.70
     Davidson diagonalization with overlap
     ethr =  3.31E-06,  avg # of iterations =  7.2

     negative rho (up, down):  5.798E-06 0.000E+00

     total cpu time spent up to now is       22.1 secs

     total energy              =    -369.17505039 Ry
     estimated scf accuracy    <       0.00229868 Ry

     iteration #  3     ecut=    60.00 Ry     beta= 0.70
     Davidson diagonalization with overlap
     ethr =  3.31E-06,  avg # of iterations =  4.2

     negative rho (up, down):  4.646E-06 0.000E+00

     total cpu time spent up to now is       23.5 secs

     total energy              =    -369.17521927 Ry
     estimated scf accuracy    <       0.00052537 Ry

     iteration #  4     ecut=    60.00 Ry     beta= 0.70
     Davidson diagonalization with overlap
     ethr =  1.75E-06,  avg # of iterations =  1.5

     negative rho (up, down):  4.226E-06 0.000E+00

     total cpu time spent up to now is       24.7 secs

     total energy              =    -369.17518479 Ry
     estimated scf accuracy    <       0.00022717 Ry

     iteration #  5     ecut=    60.00 Ry     beta= 0.70
     Davidson diagonalization with overlap
     ethr =  7.57E-07,  avg # of iterations =  1.0

     negative rho (up, down):  4.121E-06 0.000E+00

     total cpu time spent up to now is       25.9 secs

     total energy              =    -369.17518172 Ry
     estimated scf accuracy    <       0.00008722 Ry

     iteration #  6     ecut=    60.00 Ry     beta= 0.70
     Davidson diagonalization with overlap
     ethr =  2.91E-07,  avg # of iterations =  1.0

     negative rho (up, down):  3.937E-06 0.000E+00

     total cpu time spent up to now is       27.1 secs

     total energy              =    -369.17516567 Ry
     estimated scf accuracy    <       0.00006087 Ry

     iteration #  7     ecut=    60.00 Ry     beta= 0.70
     Davidson diagonalization with overlap
     ethr =  2.03E-07,  avg # of iterations =  1.5

     negative rho (up, down):  3.739E-06 0.000E+00

     total cpu time spent up to now is       28.3 secs

     total energy              =    -369.17515425 Ry
     estimated scf accuracy    <       0.00002356 Ry

     iteration #  8     ecut=    60.00 Ry     beta= 0.70
     Davidson diagonalization with overlap
     ethr =  7.85E-08,  avg # of iterations =  2.5

     negative rho (up, down):  3.779E-06 0.000E+00

     total cpu time spent up to now is       29.7 secs

     End of self-consistent calculation

          k = 0.0000 0.0000 0.0000 ( 11637 PWs)   bands (ev):

   -29.4510 -29.4510 -29.3734 -29.3734 -29.3308 -29.2608 -29.2608 -29.2261
   -29.1785 -29.1785 -12.3293  -7.2668  -1.5310  -0.9362  -0.9362   0.6494
     1.8828   1.8828   3.5492   3.6055

     occupation numbers 
     1.0000   1.0000   1.0000   1.0000   1.0000   1.0000   1.0000   1.0000
     1.0000   1.0000   1.0000   1.0000   1.0000   1.0000   1.0000   0.0000
     0.0000   0.0000   0.0000   0.0000

          k = 0.0000 0.1284 0.0000 ( 11597 PWs)   bands (ev):

   -29.4502 -29.4444 -29.3726 -29.3693 -29.3289 -29.2636 -29.2611 -29.2279
   -29.1861 -29.1789 -12.1957  -7.2627  -2.0501  -1.4762  -1.2265   1.1489
     1.9474   2.1599   3.6935   3.7838

     occupation numbers 
     1.0000   1.0000   1.0000   1.0000   1.0000   1.0000   1.0000   1.0000
     1.0000   1.0000   1.0000   1.0000   1.0000   1.0000   1.0000   0.0000
     0.0000   0.0000   0.0000   0.0000

          k = 0.0000 0.2568 0.0000 ( 11589 PWs)   bands (ev):

   -29.4479 -29.4258 -29.3706 -29.3577 -29.3227 -29.2720 -29.2628 -29.2333
   -29.2066 -29.1800 -11.8033  -7.3650  -3.3740  -1.7734  -1.4328   0.5201
     2.5553   2.6002   4.0261   4.1931

     occupation numbers 
     1.0000   1.0000   1.0000   1.0000   1.0000   1.0000   1.0000   1.0000
     1.0000   1.0000   1.0000   1.0000   1.0000   1.0000   1.0000   0.0000
     0.0000   0.0000   0.0000   0.0000

          k = 0.0000 0.3852 0.0000 ( 11562 PWs)   bands (ev):

   -29.4452 -29.4007 -29.3660 -29.3409 -29.3124 -29.2853 -29.2680 -29.2486
   -29.2270 -29.1813 -11.1890  -7.8550  -4.0032  -2.2366  -1.7671   0.3313
     2.1483   2.6858   4.5280   4.6991

     occupation numbers 
     1.0000   1.0000   1.0000   1.0000   1.0000   1.0000   1.0000   1.0000
     1.0000   1.0000   1.0000   1.0000   1.0000   1.0000   1.0000   0.0000
     0.0000   0.0000   0.0000   0.0000

          k = 0.0000 0.5136 0.0000 ( 11528 PWs)   bands (ev):

   -29.4433 -29.3855 -29.3504 -29.3216 -29.3047 -29.3023 -29.2776 -29.2722
   -29.2329 -29.1822 -10.5151  -8.6015  -3.9692  -2.4887  -2.3157   0.5975
     1.6244   2.6717   4.2520   5.6330

     occupation numbers 
     1.0000   1.0000   1.0000   1.0000   1.0000   1.0000   1.0000   1.0000
     1.0000   1.0000   1.0000   1.0000   1.0000   1.0000   1.0000   0.0000
     0.0000   0.0000   0.0000   0.0000

          k = 0.1112 0.1926 0.0000 ( 11609 PWs)   bands (ev):

   -29.4487 -29.4317 -29.3704 -29.3624 -29.3247 -29.2698 -29.2615 -29.2315
   -29.2001 -29.1798 -11.9324  -7.3089  -2.9725  -1.9090  -1.4028   1.3186
     1.7432   2.8049   3.9537   4.0680

     occupation numbers 
     1.0000   1.0000   1.0000   1.0000   1.0000   1.0000   1.0000   1.0000
     1.0000   1.0000   1.0000   1.0000   1.0000   1.0000   1.0000   0.0000
     0.0000   0.0000   0.0000   0.0000

          k = 0.1112 0.3210 0.0000 ( 11566 PWs)   bands (ev):

   -29.4463 -29.4086 -29.3668 -29.3505 -29.3152 -29.2818 -29.2632 -29.2409
   -29.2221 -29.1814 -11.4244  -7.6066  -3.7353  -2.6559  -1.4825   0.9260
     2.1393   2.6853   4.3786   4.5549

     occupation numbers 
     1.0000   1.0000   1.0000   1.0000   1.0000   1.0000   1.0000   1.0000
     1.0000   1.0000   1.0000   1.0000   1.0000   1.0000   1.0000   0.0000
     0.0000   0.0000   0.0000   0.0000

          k = 0.1112 0.4494 0.0000 ( 11528 PWs)   bands (ev):

   -29.4441 -29.3851 -29.3579 -29.3343 -29.3038 -29.2979 -29.2693 -29.2643
   -29.2339 -29.1828 -10.7414  -8.2905  -3.9750  -2.9885  -1.9628   0.9653
     1.9265   2.4126   4.6090   5.2782

     occupation numbers 
     1.0000   1.0000   1.0000   1.0000   1.0000   1.0000   1.0000   1.0000
     1.0000   1.0000   1.0000   1.0000   1.0000   1.0000   1.0000   0.0000
     0.0000   0.0000   0.0000   0.0000

          k = 0.1112 0.5778 0.0000 ( 11540 PWs)   bands (ev):

   -29.4432 -29.3784 -29.3422 -29.3191 -29.3160 -29.2993 -29.2813 -29.2728
   -29.2364 -29.1834 -10.2645  -8.8157  -3.9812  -2.9027  -2.4127   1.3611
     1.4046   2.4344   4.3453   6.3309

     occupation numbers 
     1.0000   1.0000   1.0000   1.0000   1.0000   1.0000   1.0000   1.0000
     1.0000   1.0000   1.0000   1.0000   1.0000   1.0000   1.0000   0.0000
     0.0000   0.0000   0.0000   0.0000

          k = 0.2224 0.3852 0.0000 ( 11545 PWs)   bands (ev):

   -29.4445 -29.3832 -29.3599 -29.3422 -29.3025 -29.2983 -29.2628 -29.2611
   -29.2357 -29.1836 -10.8281  -8.1368  -3.6842  -3.6469  -1.7663   1.3677
     1.5759   2.9605   4.8701   5.2114

     occupation numbers 
     1.0000   1.0000   1.0000   1.0000   1.0000   1.0000   1.0000   1.0000
     1.0000   1.0000   1.0000   1.0000   1.0000   1.0000   1.0000   0.0000
     0.0000   0.0000   0.0000   0.0000

          k = 0.2224 0.5136 0.0000 ( 11566 PWs)   bands (ev):

   -29.4433 -29.3644 -29.3459 -29.3285 -29.3185 -29.2927 -29.2864 -29.2635
   -29.2431 -29.1852 -10.1362  -8.8369  -4.2434  -3.2132  -2.3000   0.8917
     2.1611   2.7485   5.0945   6.0534

     occupation numbers 
     1.0000   1.0000   1.0000   1.0000   1.0000   1.0000   1.0000   1.0000
     1.0000   1.0000   1.0000   1.0000   1.0000   1.0000   1.0000   0.0000
     0.0000   0.0000   0.0000   0.0000

          k = 0.3336 0.5778 0.0000 ( 11556 PWs)   bands (ev):

   -29.4430 -29.3421 -29.3415 -29.3415 -29.3107 -29.3107 -29.2868 -29.2542
   -29.2542 -29.1864  -9.4674  -9.4673  -4.5375  -2.7512  -2.7512   0.5501
     2.7027   2.7027   5.7572   6.4440

     occupation numbers 
     1.0000   1.0000   1.0000   1.0000   1.0000   1.0000   1.0000   1.0000
     1.0000   1.0000   1.0000   1.0000   1.0000   1.0000   1.0000   0.0000
     0.0000   0.0000   0.0000   0.0000

     highest occupied, lowest unoccupied level (ev):    -0.9362    0.3313

!    total energy              =    -369.17515849 Ry
     estimated scf accuracy    <       0.00000018 Ry

     The total energy is the sum of the following terms:
     one-electron contribution =    -798.54569647 Ry
     hartree contribution      =     404.58569108 Ry
     xc contribution           =     -87.04966012 Ry
     ewald contribution        =     111.83450702 Ry

     convergence has been achieved in   8 iterations

     negative rho (up, down):  3.779E-06 0.000E+00

     Forces acting on atoms (cartesian axes, Ry/au):

     atom    1 type  1   force =     0.00000000    0.00000000    0.00435418
     atom    2 type  1   force =     0.00000000   -0.00000000   -0.00435418
     The non-local contrib.  to forces
     atom    1 type  1   force =     0.00000000    0.00000000    0.52655321
     atom    2 type  1   force =     0.00000000   -0.00000000   -0.52644615
     The ionic contribution  to forces
     atom    1 type  1   force =    -0.00000001    0.00000001  -35.10014302
     atom    2 type  1   force =     0.00000001   -0.00000001   35.10014302
     The local contribution  to forces
     atom    1 type  1   force =    -0.00000000   -0.00000000   34.57471239
     atom    2 type  1   force =     0.00000040   -0.00000023  -34.57509707
     The core correction contribution to forces
     atom    1 type  1   force =     0.00000000   -0.00000000    0.00034242
     atom    2 type  1   force =     0.00000004   -0.00000002   -0.00034361
     The Hubbard contrib.    to forces
     atom    1 type  1   force =     0.00000000    0.00000000    0.00000000
     atom    2 type  1   force =     0.00000000    0.00000000    0.00000000
     The SCF correction term to forces
     atom    1 type  1   force =     0.00000000   -0.00000000    0.00000000
     atom    2 type  1   force =     0.00000000   -0.00000000   -0.00250500

     Total force =     0.004354     Total SCF correction =     0.002505
     SCF correction compared to forces is large: reduce conv_thr to get better values


     Computing stress (Cartesian axis) and pressure


     negative rho (up, down):  3.779E-06 0.000E+00
          total   stress  (Ry/bohr**3)                   (kbar)     P=       -3.66
  -0.00003117   0.00000000   0.00000000           -4.59        0.00        0.00
  -0.00000000  -0.00003117  -0.00000000           -0.00       -4.59       -0.00
   0.00000000  -0.00000000  -0.00001238            0.00       -0.00       -1.82

     kinetic stress (kbar)   4748.00      0.00      0.00
                                0.00   4748.00      0.00
                                0.00     -0.00   4776.32

     local   stress (kbar) -61597.72      0.00     -0.00
                                0.00 -61597.72      0.00
                               -0.00      0.00  62117.25

     nonloc. stress (kbar)     39.61     -0.00      0.00
                               -0.00     39.61      0.00
                                0.00      0.00     57.81

     hartree stress (kbar)  33439.47      0.00     -0.00
                                0.00  33439.47     -0.00
                               -0.00     -0.00 -26426.83

     exc-cor stress (kbar)   2893.57     -0.00      0.00
                               -0.00   2893.57     -0.00
                                0.00     -0.00   2892.68

     corecor stress (kbar)  -4551.74      0.00      0.00
                                0.00  -4551.74     -0.00
                                0.00     -0.00  -4552.26

     ewald   stress (kbar)  25024.23     -0.00      0.00
                               -0.00  25024.23     -0.00
                                0.00     -0.00 -38866.79

     hubbard stress (kbar)      0.00      0.00      0.00
                                0.00      0.00      0.00
                                0.00      0.00      0.00

     DFT-D   stress (kbar)      0.00      0.00      0.00
                                0.00      0.00      0.00
                                0.00      0.00      0.00

     XDM     stress (kbar)      0.00      0.00      0.00
                                0.00      0.00      0.00
                                0.00      0.00      0.00

     dft-nl  stress (kbar)      0.00      0.00      0.00
                                0.00      0.00      0.00
                                0.00      0.00      0.00

     TS-vdW  stress (kbar)      0.00      0.00      0.00
                                0.00      0.00      0.00
                                0.00      0.00      0.00


     Energy error            =      8.2E-05
     Gradient error          =      4.4E-03
     Cell gradient error     =      3.1E-05


     number of scf cycles    =   2
     number of bfgs steps    =   1

     enthalpy old            =    -369.1750762837 Ry
     enthalpy new            =    -369.1751584872 Ry

     CASE: enthalpy_new < enthalpy_old


     WARNING: bfgs curvature condition failed, Theta= 0.802
     new trust radius        =       0.0066975352 bohr
     new conv_thr            =       0.0000000100 Ry

     new unit-cell volume =   1468.71812 a.u.^3 (   217.64157 Ang^3 )
     density =      0.18328 g/cm^3

CELL_PARAMETERS (alat=  7.74787711)
   0.998334600  -0.000000000   0.000000000
  -0.499167300   0.864583125   0.000000000
   0.000000000   0.000000000   3.658536585

ATOMIC_POSITIONS (crystal)
Sb            0.0000000000        0.0000000000        0.5000000000    0   0   0
Sb            0.3333333330        0.6666666670        0.6082220641



     Writing output data file ./tmp/Sb.save/
     NEW-OLD atomic charge density approx. for the potential

     negative rho (up, down):  4.728E-05 0.000E+00
     extrapolated charge   29.95105, renormalised to   30.00000

     total cpu time spent up to now is       35.5 secs

     Self-consistent Calculation

     iteration #  1     ecut=    60.00 Ry     beta= 0.70
     Davidson diagonalization with overlap
     ethr =  1.00E-06,  avg # of iterations =  8.2

     negative rho (up, down):  1.519E-05 0.000E+00

     total cpu time spent up to now is       37.9 secs

     total energy              =    -369.17348720 Ry
     estimated scf accuracy    <       0.00120753 Ry

     iteration #  2     ecut=    60.00 Ry     beta= 0.70
     Davidson diagonalization with overlap
     ethr =  4.03E-06,  avg # of iterations =  7.2

     negative rho (up, down):  6.736E-06 0.000E+00

     total cpu time spent up to now is       39.9 secs

     total energy              =    -369.17513479 Ry
     estimated scf accuracy    <       0.00265673 Ry

     iteration #  3     ecut=    60.00 Ry     beta= 0.70
     Davidson diagonalization with overlap
     ethr =  4.03E-06,  avg # of iterations =  3.9

     negative rho (up, down):  5.280E-06 0.000E+00

     total cpu time spent up to now is       41.7 secs

     total energy              =    -369.17532169 Ry
     estimated scf accuracy    <       0.00051300 Ry

     iteration #  4     ecut=    60.00 Ry     beta= 0.70
     Davidson diagonalization with overlap
     ethr =  1.71E-06,  avg # of iterations =  1.5

     negative rho (up, down):  4.762E-06 0.000E+00

     total cpu time spent up to now is       43.0 secs

     total energy              =    -369.17527034 Ry
     estimated scf accuracy    <       0.00027290 Ry

     iteration #  5     ecut=    60.00 Ry     beta= 0.70
     Davidson diagonalization with overlap
     ethr =  9.10E-07,  avg # of iterations =  1.2

     negative rho (up, down):  4.618E-06 0.000E+00

     total cpu time spent up to now is       44.3 secs

     total energy              =    -369.17526378 Ry
     estimated scf accuracy    <       0.00010856 Ry

     iteration #  6     ecut=    60.00 Ry     beta= 0.70
     Davidson diagonalization with overlap
     ethr =  3.62E-07,  avg # of iterations =  1.0

     negative rho (up, down):  4.380E-06 0.000E+00

     total cpu time spent up to now is       45.5 secs

     total energy              =    -369.17523978 Ry
     estimated scf accuracy    <       0.00007121 Ry

     iteration #  7     ecut=    60.00 Ry     beta= 0.70
     Davidson diagonalization with overlap
     ethr =  2.37E-07,  avg # of iterations =  2.5

     negative rho (up, down):  4.219E-06 0.000E+00

     total cpu time spent up to now is       46.9 secs

     total energy              =    -369.17523365 Ry
     estimated scf accuracy    <       0.00001782 Ry

     iteration #  8     ecut=    60.00 Ry     beta= 0.70
     Davidson diagonalization with overlap
     ethr =  5.94E-08,  avg # of iterations =  2.2

     negative rho (up, down):  4.231E-06 0.000E+00

     total cpu time spent up to now is       48.3 secs

     total energy              =    -369.17523703 Ry
     estimated scf accuracy    <       0.00000015 Ry

     iteration #  9     ecut=    60.00 Ry     beta= 0.70
     Davidson diagonalization with overlap
     ethr =  5.09E-10,  avg # of iterations =  2.2

     negative rho (up, down):  4.207E-06 0.000E+00

     total cpu time spent up to now is       49.9 secs

     total energy              =    -369.17523692 Ry
     estimated scf accuracy    <       0.00000032 Ry

     iteration # 10     ecut=    60.00 Ry     beta= 0.70
     Davidson diagonalization with overlap
     ethr =  5.09E-10,  avg # of iterations =  2.0

     negative rho (up, down):  4.203E-06 0.000E+00

     total cpu time spent up to now is       51.3 secs

     total energy              =    -369.17523695 Ry
     estimated scf accuracy    <       0.00000002 Ry

     iteration # 11     ecut=    60.00 Ry     beta= 0.70
     Davidson diagonalization with overlap
     ethr =  6.50E-11,  avg # of iterations =  2.0

     negative rho (up, down):  4.192E-06 0.000E+00

     total cpu time spent up to now is       52.9 secs

     End of self-consistent calculation

          k = 0.0000 0.0000 0.0000 ( 11637 PWs)   bands (ev):

   -29.4499 -29.4499 -29.3715 -29.3715 -29.3286 -29.2576 -29.2576 -29.2228
   -29.1747 -29.1747 -12.3440  -7.2599  -1.5266  -0.9337  -0.9337   0.6599
     1.8928   1.8928   3.5563   3.6100

     occupation numbers 
     1.0000   1.0000   1.0000   1.0000   1.0000   1.0000   1.0000   1.0000
     1.0000   1.0000   1.0000   1.0000   1.0000   1.0000   1.0000   0.0000
     0.0000   0.0000   0.0000   0.0000

          k = 0.0000 0.1285 0.0000 ( 11597 PWs)   bands (ev):

   -29.4491 -29.4433 -29.3706 -29.3673 -29.3266 -29.2605 -29.2579 -29.2245
   -29.1824 -29.1751 -12.2100  -7.2553  -2.0512  -1.4713  -1.2253   1.1582
     1.9606   2.1719   3.7004   3.7887

     occupation numbers 
     1.0000   1.0000   1.0000   1.0000   1.0000   1.0000   1.0000   1.0000
     1.0000   1.0000   1.0000   1.0000   1.0000   1.0000   1.0000   0.0000
     0.0000   0.0000   0.0000   0.0000

          k = 0.0000 0.2570 0.0000 ( 11589 PWs)   bands (ev):

   -29.4467 -29.4245 -29.3686 -29.3556 -29.3203 -29.2690 -29.2596 -29.2301
   -29.2031 -29.1762 -11.8163  -7.3571  -3.3798  -1.7742  -1.4266   0.5263
     2.5700   2.6138   4.0322   4.2005

     occupation numbers 
     1.0000   1.0000   1.0000   1.0000   1.0000   1.0000   1.0000   1.0000
     1.0000   1.0000   1.0000   1.0000   1.0000   1.0000   1.0000   0.0000
     0.0000   0.0000   0.0000   0.0000

          k = 0.0000 0.3855 0.0000 ( 11562 PWs)   bands (ev):

   -29.4440 -29.3991 -29.3640 -29.3386 -29.3099 -29.2824 -29.2649 -29.2456
   -29.2236 -29.1775 -11.1997  -7.8502  -4.0087  -2.2389  -1.7612   0.3362
     2.1569   2.7013   4.5375   4.7072

     occupation numbers 
     1.0000   1.0000   1.0000   1.0000   1.0000   1.0000   1.0000   1.0000
     1.0000   1.0000   1.0000   1.0000   1.0000   1.0000   1.0000   0.0000
     0.0000   0.0000   0.0000   0.0000

          k = 0.0000 0.5141 0.0000 ( 11528 PWs)   bands (ev):

   -29.4422 -29.3837 -29.3484 -29.3190 -29.3020 -29.2996 -29.2748 -29.2694
   -29.2296 -29.1784 -10.5229  -8.6022  -3.9710  -2.4919  -2.3124   0.6016
     1.6334   2.6870   4.2589   5.6434

     occupation numbers 
     1.0000   1.0000   1.0000   1.0000   1.0000   1.0000   1.0000   1.0000
     1.0000   1.0000   1.0000   1.0000   1.0000   1.0000   1.0000   0.0000
     0.0000   0.0000   0.0000   0.0000

          k = 0.1113 0.1928 0.0000 ( 11609 PWs)   bands (ev):

   -29.4475 -29.4304 -29.3685 -29.3604 -29.3223 -29.2667 -29.2583 -29.2282
   -29.1965 -29.1760 -11.9458  -7.3009  -2.9770  -1.9101  -1.3973   1.3284
     1.7545   2.8209   3.9607   4.0737

     occupation numbers 
     1.0000   1.0000   1.0000   1.0000   1.0000   1.0000   1.0000   1.0000
     1.0000   1.0000   1.0000   1.0000   1.0000   1.0000   1.0000   0.0000
     0.0000   0.0000   0.0000   0.0000

          k = 0.1113 0.3213 0.0000 ( 11566 PWs)   bands (ev):

   -29.4451 -29.4071 -29.3648 -29.3483 -29.3128 -29.2789 -29.2601 -29.2378
   -29.2187 -29.1776 -11.4360  -7.5998  -3.7415  -2.6592  -1.4763   0.9339
     2.1520   2.6978   4.3858   4.5628

     occupation numbers 
     1.0000   1.0000   1.0000   1.0000   1.0000   1.0000   1.0000   1.0000
     1.0000   1.0000   1.0000   1.0000   1.0000   1.0000   1.0000   0.0000
     0.0000   0.0000   0.0000   0.0000

          k = 0.1113 0.4498 0.0000 ( 11528 PWs)   bands (ev):

   -29.4429 -29.3833 -29.3558 -29.3320 -29.3012 -29.2951 -29.2663 -29.2615
   -29.2305 -29.1791 -10.7503  -8.2886  -3.9789  -2.9927  -1.9583   0.9728
     1.9362   2.4248   4.6175   5.2874

     occupation numbers 
     1.0000   1.0000   1.0000   1.0000   1.0000   1.0000   1.0000   1.0000
     1.0000   1.0000   1.0000   1.0000   1.0000   1.0000   1.0000   0.0000
     0.0000   0.0000   0.0000   0.0000

          k = 0.1113 0.5783 0.0000 ( 11540 PWs)   bands (ev):

   -29.4420 -29.3765 -29.3401 -29.3165 -29.3135 -29.2965 -29.2786 -29.2699
   -29.2330 -29.1797 -10.2712  -8.8174  -3.9838  -2.9063  -2.4099   1.3701
     1.4118   2.4480   4.3513   6.3425

     occupation numbers 
     1.0000   1.0000   1.0000   1.0000   1.0000   1.0000   1.0000   1.0000
     1.0000   1.0000   1.0000   1.0000   1.0000   1.0000   1.0000   0.0000
     0.0000   0.0000   0.0000   0.0000

          k = 0.2226 0.3855 0.0000 ( 11545 PWs)   bands (ev):

   -29.4433 -29.3814 -29.3578 -29.3399 -29.2999 -29.2955 -29.2597 -29.2582
   -29.2324 -29.1798 -10.8374  -8.1334  -3.6909  -3.6509  -1.7607   1.3765
     1.5860   2.9765   4.8760   5.2200

     occupation numbers 
     1.0000   1.0000   1.0000   1.0000   1.0000   1.0000   1.0000   1.0000
     1.0000   1.0000   1.0000   1.0000   1.0000   1.0000   1.0000   0.0000
     0.0000   0.0000   0.0000   0.0000

          k = 0.2226 0.5141 0.0000 ( 11566 PWs)   bands (ev):

   -29.4421 -29.3624 -29.3437 -29.3262 -29.3160 -29.2899 -29.2837 -29.2605
   -29.2399 -29.1815 -10.1426  -8.8376  -4.2515  -3.2143  -2.2963   0.8986
     2.1733   2.7635   5.1007   6.0640

     occupation numbers 
     1.0000   1.0000   1.0000   1.0000   1.0000   1.0000   1.0000   1.0000
     1.0000   1.0000   1.0000   1.0000   1.0000   1.0000   1.0000   0.0000
     0.0000   0.0000   0.0000   0.0000

          k = 0.3339 0.5783 0.0000 ( 11556 PWs)   bands (ev):

   -29.4418 -29.3398 -29.3392 -29.3392 -29.3083 -29.3083 -29.2839 -29.2510
   -29.2510 -29.1827  -9.4709  -9.4709  -4.5476  -2.7492  -2.7492   0.5555
     2.7176   2.7176   5.7658   6.4553

     occupation numbers 
     1.0000   1.0000   1.0000   1.0000   1.0000   1.0000   1.0000   1.0000
     1.0000   1.0000   1.0000   1.0000   1.0000   1.0000   1.0000   0.0000
     0.0000   0.0000   0.0000   0.0000

     highest occupied, lowest unoccupied level (ev):    -0.9337    0.3362

!    total energy              =    -369.17523696 Ry
     estimated scf accuracy    <          1.5E-10 Ry

     The total energy is the sum of the following terms:
     one-electron contribution =    -799.74734783 Ry
     hartree contribution      =     405.19484493 Ry
     xc contribution           =     -87.05284499 Ry
     ewald contribution        =     112.43011092 Ry

     convergence has been achieved in  11 iterations

     negative rho (up, down):  4.192E-06 0.000E+00

     Forces acting on atoms (cartesian axes, Ry/au):

     atom    1 type  1   force =     0.00000000    0.00000000    0.00196967
     atom    2 type  1   force =    -0.00000000   -0.00000000   -0.00196967
     The non-local contrib.  to forces
     atom    1 type  1   force =    -0.00000000   -0.00000000    0.52598642
     atom    2 type  1   force =    -0.00000000   -0.00000000   -0.52598414
     The ionic contribution  to forces
     atom    1 type  1   force =    -0.00000001    0.00000001  -35.16759629
     atom    2 type  1   force =     0.00000001   -0.00000001   35.16759629
     The local contribution  to forces
     atom    1 type  1   force =    -0.00000000   -0.00000000   34.64309322
     atom    2 type  1   force =     0.00000040   -0.00000023  -34.64309807
     The core correction contribution to forces
     atom    1 type  1   force =     0.00000000   -0.00000000    0.00057400
     atom    2 type  1   force =     0.00000004   -0.00000002   -0.00057635
     The Hubbard contrib.    to forces
     atom    1 type  1   force =     0.00000000    0.00000000    0.00000000
     atom    2 type  1   force =     0.00000000    0.00000000    0.00000000
     The SCF correction term to forces
     atom    1 type  1   force =    -0.00000000    0.00000000   -0.00000000
     atom    2 type  1   force =     0.00000000   -0.00000000    0.00009206

     Total force =     0.001970     Total SCF correction =     0.000092


     Computing stress (Cartesian axis) and pressure


     negative rho (up, down):  4.192E-06 0.000E+00
          total   stress  (Ry/bohr**3)                   (kbar)     P=       -2.64
  -0.00002446   0.00000000   0.00000000           -3.60        0.00        0.00
  -0.00000000  -0.00002446   0.00000000           -0.00       -3.60        0.00
   0.00000000   0.00000000  -0.00000482            0.00        0.00       -0.71

     kinetic stress (kbar)   4756.60      0.00      0.00
                                0.00   4756.60      0.00
                               -0.00     -0.00   4785.23

     local   stress (kbar) -61847.99      0.00     -0.00
                                0.00 -61847.99      0.00
                               -0.00      0.00  62390.01

     nonloc. stress (kbar)     40.53      0.00     -0.00
                                0.00     40.53     -0.00
                                0.00      0.00     58.80

     hartree stress (kbar)  33566.97      0.00      0.00
                                0.00  33566.97     -0.00
                                0.00     -0.00 -26550.09

     exc-cor stress (kbar)   2898.54     -0.00      0.00
                               -0.00   2898.54     -0.00
                                0.00     -0.00   2897.65

     corecor stress (kbar)  -4559.71      0.00      0.00
                                0.00  -4559.71     -0.00
                                0.00     -0.00  -4560.24

     ewald   stress (kbar)  25141.47     -0.00      0.00
                               -0.00  25141.47     -0.00
                                0.00     -0.00 -39022.07

     hubbard stress (kbar)      0.00      0.00      0.00
                                0.00      0.00      0.00
                                0.00      0.00      0.00

     DFT-D   stress (kbar)      0.00      0.00      0.00
                                0.00      0.00      0.00
                                0.00      0.00      0.00

     XDM     stress (kbar)      0.00      0.00      0.00
                                0.00      0.00      0.00
                                0.00      0.00      0.00

     dft-nl  stress (kbar)      0.00      0.00      0.00
                                0.00      0.00      0.00
                                0.00      0.00      0.00

     TS-vdW  stress (kbar)      0.00      0.00      0.00
                                0.00      0.00      0.00
                                0.00      0.00      0.00


     Energy error            =      7.8E-05
     Gradient error          =      2.0E-03
     Cell gradient error     =      2.4E-05


     number of scf cycles    =   3
     number of bfgs steps    =   2

     enthalpy old            =    -369.1751584872 Ry
     enthalpy new            =    -369.1752369600 Ry

     CASE: enthalpy_new < enthalpy_old

     new trust radius        =       0.0100463029 bohr
     new conv_thr            =       0.0000000100 Ry

     new unit-cell volume =   1464.87051 a.u.^3 (   217.07141 Ang^3 )
     density =      0.18376 g/cm^3

CELL_PARAMETERS (alat=  7.74787711)
   0.997026072  -0.000000000   0.000000000
  -0.498513036   0.863449906   0.000000000
   0.000000000   0.000000000   3.658536585

ATOMIC_POSITIONS (crystal)
Sb            0.0000000000        0.0000000000        0.5000000000    0   0   0
Sb            0.3333333330        0.6666666670        0.6080726296



     Writing output data file ./tmp/Sb.save/
     NEW-OLD atomic charge density approx. for the potential

     negative rho (up, down):  6.374E-05 0.000E+00
     extrapolated charge   29.92646, renormalised to   30.00000

     total cpu time spent up to now is       59.0 secs

     Self-consistent Calculation

     iteration #  1     ecut=    60.00 Ry     beta= 0.70
     Davidson diagonalization with overlap
     c_bands:  1 eigenvalues not converged
     ethr =  1.00E-06,  avg # of iterations =  9.5

     negative rho (up, down):  2.216E-05 0.000E+00

     total cpu time spent up to now is       61.5 secs

     total energy              =    -369.17149707 Ry
     estimated scf accuracy    <       0.00259097 Ry

     iteration #  2     ecut=    60.00 Ry     beta= 0.70
     Davidson diagonalization with overlap
     ethr =  8.64E-06,  avg # of iterations =  7.3

     negative rho (up, down):  9.060E-06 0.000E+00

     total cpu time spent up to now is       63.6 secs

     total energy              =    -369.17515586 Ry
     estimated scf accuracy    <       0.00568086 Ry

     iteration #  3     ecut=    60.00 Ry     beta= 0.70
     Davidson diagonalization with overlap
     ethr =  8.64E-06,  avg # of iterations =  3.9

     negative rho (up, down):  6.591E-06 0.000E+00

     total cpu time spent up to now is       65.2 secs

     total energy              =    -369.17553113 Ry
     estimated scf accuracy    <       0.00096304 Ry

     iteration #  4     ecut=    60.00 Ry     beta= 0.70
     Davidson diagonalization with overlap
     ethr =  3.21E-06,  avg # of iterations =  1.8

     negative rho (up, down):  5.728E-06 0.000E+00

     total cpu time spent up to now is       66.6 secs

     total energy              =    -369.17540088 Ry
     estimated scf accuracy    <       0.00059845 Ry

     iteration #  5     ecut=    60.00 Ry     beta= 0.70
     Davidson diagonalization with overlap
     ethr =  1.99E-06,  avg # of iterations =  3.3

     negative rho (up, down):  5.509E-06 0.000E+00

     total cpu time spent up to now is       68.1 secs

     total energy              =    -369.17540260 Ry
     estimated scf accuracy    <       0.00023434 Ry

     iteration #  6     ecut=    60.00 Ry     beta= 0.70
     Davidson diagonalization with overlap
     ethr =  7.81E-07,  avg # of iterations =  1.0

     negative rho (up, down):  5.300E-06 0.000E+00

     total cpu time spent up to now is       69.4 secs

     total energy              =    -369.17537847 Ry
     estimated scf accuracy    <       0.00018973 Ry

     iteration #  7     ecut=    60.00 Ry     beta= 0.70
     Davidson diagonalization with overlap
     ethr =  6.32E-07,  avg # of iterations =  1.0

     negative rho (up, down):  4.807E-06 0.000E+00

     total cpu time spent up to now is       70.8 secs

     total energy              =    -369.17530348 Ry
     estimated scf accuracy    <       0.00012998 Ry

     iteration #  8     ecut=    60.00 Ry     beta= 0.70
     Davidson diagonalization with overlap
     ethr =  4.33E-07,  avg # of iterations =  3.7

     negative rho (up, down):  4.859E-06 0.000E+00

     total cpu time spent up to now is       72.3 secs

     total energy              =    -369.17532983 Ry
     estimated scf accuracy    <       0.00000074 Ry

     iteration #  9     ecut=    60.00 Ry     beta= 0.70
     Davidson diagonalization with overlap
     ethr =  2.48E-09,  avg # of iterations =  2.1

     negative rho (up, down):  4.823E-06 0.000E+00

     total cpu time spent up to now is       74.0 secs

     total energy              =    -369.17532957 Ry
     estimated scf accuracy    <       0.00000206 Ry

     iteration # 10     ecut=    60.00 Ry     beta= 0.70
     Davidson diagonalization with overlap
     ethr =  2.48E-09,  avg # of iterations =  2.0

     negative rho (up, down):  4.832E-06 0.000E+00

     total cpu time spent up to now is       75.5 secs

     total energy              =    -369.17532942 Ry
     estimated scf accuracy    <       0.00000054 Ry

     iteration # 11     ecut=    60.00 Ry     beta= 0.70
     Davidson diagonalization with overlap
     ethr =  1.81E-09,  avg # of iterations =  2.0

     negative rho (up, down):  4.875E-06 0.000E+00

     total cpu time spent up to now is       77.1 secs

     total energy              =    -369.17532948 Ry
     estimated scf accuracy    <       0.00000005 Ry

     iteration # 12     ecut=    60.00 Ry     beta= 0.70
     Davidson diagonalization with overlap
     ethr =  1.60E-10,  avg # of iterations =  2.0

     negative rho (up, down):  4.902E-06 0.000E+00

     total cpu time spent up to now is       78.7 secs

     End of self-consistent calculation

          k = 0.0000 0.0000 0.0000 ( 11637 PWs)   bands (ev):

   -29.4434 -29.4434 -29.3638 -29.3638 -29.3207 -29.2484 -29.2484 -29.2134
   -29.1647 -29.1647 -12.3584  -7.2495  -1.5204  -0.9226  -0.9226   0.6825
     1.9118   1.9118   3.5662   3.6171

     occupation numbers 
     1.0000   1.0000   1.0000   1.0000   1.0000   1.0000   1.0000   1.0000
     1.0000   1.0000   1.0000   1.0000   1.0000   1.0000   1.0000   0.0000
     0.0000   0.0000   0.0000   0.0000

          k = 0.0000 0.1287 0.0000 ( 11597 PWs)   bands (ev):

   -29.4425 -29.4366 -29.3629 -29.3595 -29.3187 -29.2513 -29.2487 -29.2152
   -29.1725 -29.1651 -12.2239  -7.2439  -2.0455  -1.4644  -1.2160   1.1769
     1.9846   2.1932   3.7103   3.7971

     occupation numbers 
     1.0000   1.0000   1.0000   1.0000   1.0000   1.0000   1.0000   1.0000
     1.0000   1.0000   1.0000   1.0000   1.0000   1.0000   1.0000   0.0000
     0.0000   0.0000   0.0000   0.0000

          k = 0.0000 0.2574 0.0000 ( 11589 PWs)   bands (ev):

   -29.4401 -29.4176 -29.3609 -29.3477 -29.3123 -29.2599 -29.2505 -29.2208
   -29.1935 -29.1662 -11.8283  -7.3439  -3.3819  -1.7678  -1.4173   0.5392
     2.5941   2.6366   4.0417   4.2116

     occupation numbers 
     1.0000   1.0000   1.0000   1.0000   1.0000   1.0000   1.0000   1.0000
     1.0000   1.0000   1.0000   1.0000   1.0000   1.0000   1.0000   0.0000
     0.0000   0.0000   0.0000   0.0000

          k = 0.0000 0.3860 0.0000 ( 11562 PWs)   bands (ev):

   -29.4373 -29.3918 -29.3564 -29.3305 -29.3017 -29.2735 -29.2559 -29.2365
   -29.2143 -29.1676 -11.2086  -7.8396  -4.0125  -2.2348  -1.7513   0.3462
     2.1714   2.7253   4.5518   4.7191

     occupation numbers 
     1.0000   1.0000   1.0000   1.0000   1.0000   1.0000   1.0000   1.0000
     1.0000   1.0000   1.0000   1.0000   1.0000   1.0000   1.0000   0.0000
     0.0000   0.0000   0.0000   0.0000

          k = 0.0000 0.5147 0.0000 ( 11528 PWs)   bands (ev):

   -29.4354 -29.3761 -29.3407 -29.3106 -29.2934 -29.2909 -29.2661 -29.2607
   -29.2202 -29.1685 -10.5276  -8.5981  -3.9706  -2.4889  -2.3061   0.6119
     1.6465   2.7102   4.2696   5.6585

     occupation numbers 
     1.0000   1.0000   1.0000   1.0000   1.0000   1.0000   1.0000   1.0000
     1.0000   1.0000   1.0000   1.0000   1.0000   1.0000   1.0000   0.0000
     0.0000   0.0000   0.0000   0.0000

          k = 0.1114 0.1930 0.0000 ( 11609 PWs)   bands (ev):

   -29.4409 -29.4235 -29.3607 -29.3525 -29.3143 -29.2576 -29.2491 -29.2189
   -29.1869 -29.1660 -11.9584  -7.2880  -2.9766  -1.9045  -1.3891   1.3458
     1.7759   2.8468   3.9711   4.0833

     occupation numbers 
     1.0000   1.0000   1.0000   1.0000   1.0000   1.0000   1.0000   1.0000
     1.0000   1.0000   1.0000   1.0000   1.0000   1.0000   1.0000   0.0000
     0.0000   0.0000   0.0000   0.0000

          k = 0.1114 0.3217 0.0000 ( 11566 PWs)   bands (ev):

   -29.4385 -29.3999 -29.3570 -29.3403 -29.3045 -29.2699 -29.2509 -29.2286
   -29.2093 -29.1676 -11.4461  -7.5871  -3.7453  -2.6573  -1.4662   0.9480
     2.1726   2.7188   4.3973   4.5748

     occupation numbers 
     1.0000   1.0000   1.0000   1.0000   1.0000   1.0000   1.0000   1.0000
     1.0000   1.0000   1.0000   1.0000   1.0000   1.0000   1.0000   0.0000
     0.0000   0.0000   0.0000   0.0000

          k = 0.1114 0.4504 0.0000 ( 11528 PWs)   bands (ev):

   -29.4362 -29.3758 -29.3481 -29.3238 -29.2927 -29.2864 -29.2574 -29.2526
   -29.2212 -29.1691 -10.7567  -8.2811  -3.9808  -2.9926  -1.9497   0.9856
     1.9525   2.4440   4.6311   5.3007

     occupation numbers 
     1.0000   1.0000   1.0000   1.0000   1.0000   1.0000   1.0000   1.0000
     1.0000   1.0000   1.0000   1.0000   1.0000   1.0000   1.0000   0.0000
     0.0000   0.0000   0.0000   0.0000

          k = 0.1114 0.5791 0.0000 ( 11540 PWs)   bands (ev):

   -29.4352 -29.3689 -29.3323 -29.3081 -29.3051 -29.2878 -29.2700 -29.2611
   -29.2238 -29.1698 -10.2744  -8.8145  -3.9838  -2.9054  -2.4042   1.3830
     1.4271   2.4678   4.3611   6.3592

     occupation numbers 
     1.0000   1.0000   1.0000   1.0000   1.0000   1.0000   1.0000   1.0000
     1.0000   1.0000   1.0000   1.0000   1.0000   1.0000   1.0000   0.0000
     0.0000   0.0000   0.0000   0.0000

          k = 0.2229 0.3860 0.0000 ( 11545 PWs)   bands (ev):

   -29.4366 -29.3739 -29.3500 -29.3320 -29.2914 -29.2868 -29.2506 -29.2493
   -29.2231 -29.1699 -10.8444  -8.1239  -3.6941  -3.6529  -1.7508   1.3902
     1.6011   3.0029   4.8892   5.2328

     occupation numbers 
     1.0000   1.0000   1.0000   1.0000   1.0000   1.0000   1.0000   1.0000
     1.0000   1.0000   1.0000   1.0000   1.0000   1.0000   1.0000   0.0000
     0.0000   0.0000   0.0000   0.0000

          k = 0.2229 0.5147 0.0000 ( 11566 PWs)   bands (ev):

   -29.4354 -29.3546 -29.3357 -29.3182 -29.3076 -29.2812 -29.2751 -29.2515
   -29.2307 -29.1716 -10.1454  -8.8333  -4.2569  -3.2126  -2.2889   0.9089
     2.1911   2.7867   5.1137   6.0802

     occupation numbers 
     1.0000   1.0000   1.0000   1.0000   1.0000   1.0000   1.0000   1.0000
     1.0000   1.0000   1.0000   1.0000   1.0000   1.0000   1.0000   0.0000
     0.0000   0.0000   0.0000   0.0000

          k = 0.3343 0.5791 0.0000 ( 11556 PWs)   bands (ev):

   -29.4350 -29.3318 -29.3311 -29.3309 -29.3002 -29.3001 -29.2749 -29.2420
   -29.2420 -29.1728  -9.4699  -9.4699  -4.5558  -2.7438  -2.7438   0.5635
     2.7389   2.7389   5.7794   6.4772

     occupation numbers 
     1.0000   1.0000   1.0000   1.0000   1.0000   1.0000   1.0000   1.0000
     1.0000   1.0000   1.0000   1.0000   1.0000   1.0000   1.0000   0.0000
     0.0000   0.0000   0.0000   0.0000

     highest occupied, lowest unoccupied level (ev):    -0.9226    0.3462

!    total energy              =    -369.17532948 Ry
     estimated scf accuracy    <          8.0E-09 Ry

     The total energy is the sum of the following terms:
     one-electron contribution =    -801.37590066 Ry
     hartree contribution      =     406.01826246 Ry
     xc contribution           =     -87.05674660 Ry
     ewald contribution        =     113.23905532 Ry

     convergence has been achieved in  12 iterations

     negative rho (up, down):  4.902E-06 0.000E+00

     Forces acting on atoms (cartesian axes, Ry/au):

     atom    1 type  1   force =    -0.00000000   -0.00000000    0.00091425
     atom    2 type  1   force =     0.00000000    0.00000000   -0.00091425
     The non-local contrib.  to forces
     atom    1 type  1   force =     0.00000000    0.00000000    0.52648493
     atom    2 type  1   force =     0.00000000    0.00000000   -0.52654281
     The ionic contribution  to forces
     atom    1 type  1   force =    -0.00000001    0.00000001  -35.27498000
     atom    2 type  1   force =     0.00000001   -0.00000001   35.27498000
     The local contribution  to forces
     atom    1 type  1   force =    -0.00000000   -0.00000000   34.74814150
     atom    2 type  1   force =     0.00000040   -0.00000023  -34.74801425
     The core correction contribution to forces
     atom    1 type  1   force =     0.00000000   -0.00000000    0.00068224
     atom    2 type  1   force =     0.00000004   -0.00000002   -0.00067976
     The Hubbard contrib.    to forces
     atom    1 type  1   force =     0.00000000    0.00000000    0.00000000
     atom    2 type  1   force =     0.00000000    0.00000000    0.00000000
     The SCF correction term to forces
     atom    1 type  1   force =    -0.00000000    0.00000000    0.00000000
     atom    2 type  1   force =    -0.00000000    0.00000000   -0.00070374

     Total force =     0.000914     Total SCF correction =     0.000704
     SCF correction compared to forces is large: reduce conv_thr to get better values


     Computing stress (Cartesian axis) and pressure


     negative rho (up, down):  4.902E-06 0.000E+00
          total   stress  (Ry/bohr**3)                   (kbar)     P=       -2.13
  -0.00002081  -0.00000000   0.00000000           -3.06       -0.00        0.00
  -0.00000000  -0.00002081   0.00000000           -0.00       -3.06        0.00
   0.00000000   0.00000000  -0.00000187            0.00        0.00       -0.27

     kinetic stress (kbar)   4769.44     -0.00     -0.00
                               -0.00   4769.44     -0.00
                               -0.00     -0.00   4798.29

     local   stress (kbar) -62203.84      0.00     -0.00
                                0.00 -62203.84      0.00
                               -0.00      0.00  62776.40

     nonloc. stress (kbar)     40.98      0.00      0.00
                                0.00     40.98      0.00
                                0.00      0.00     59.35

     hartree stress (kbar)  33748.81     -0.00      0.00
                               -0.00  33748.81     -0.00
                                0.00     -0.00 -26724.49

     exc-cor stress (kbar)   2906.05     -0.00      0.00
                               -0.00   2906.05     -0.00
                                0.00     -0.00   2905.15

     corecor stress (kbar)  -4571.70      0.00      0.00
                                0.00  -4571.70     -0.00
                                0.00     -0.00  -4572.23

     ewald   stress (kbar)  25307.21     -0.00      0.00
                               -0.00  25307.21     -0.00
                                0.00     -0.00 -39242.75

     hubbard stress (kbar)      0.00      0.00      0.00
                                0.00      0.00      0.00
                                0.00      0.00      0.00

     DFT-D   stress (kbar)      0.00      0.00      0.00
                                0.00      0.00      0.00
                                0.00      0.00      0.00

     XDM     stress (kbar)      0.00      0.00      0.00
                                0.00      0.00      0.00
                                0.00      0.00      0.00

     dft-nl  stress (kbar)      0.00      0.00      0.00
                                0.00      0.00      0.00
                                0.00      0.00      0.00

     TS-vdW  stress (kbar)      0.00      0.00      0.00
                                0.00      0.00      0.00
                                0.00      0.00      0.00


     Energy error            =      9.3E-05
     Gradient error          =      9.1E-04
     Cell gradient error     =      2.1E-05


     number of scf cycles    =   4
     number of bfgs steps    =   3

     enthalpy old            =    -369.1752369600 Ry
     enthalpy new            =    -369.1753294812 Ry

     CASE: enthalpy_new < enthalpy_old

     new trust radius        =       0.0150694543 bohr
     new conv_thr            =       0.0000000100 Ry

     new unit-cell volume =   1459.10856 a.u.^3 (   216.21758 Ang^3 )
     density =      0.18449 g/cm^3

CELL_PARAMETERS (alat=  7.74787711)
   0.995063279  -0.000000000   0.000000000
  -0.497531639   0.861750078   0.000000000
   0.000000000   0.000000000   3.658536585

ATOMIC_POSITIONS (crystal)
Sb            0.0000000000        0.0000000000        0.5000000000    0   0   0
Sb            0.3333333330        0.6666666670        0.6078909015



     Writing output data file ./tmp/Sb.save/
     NEW-OLD atomic charge density approx. for the potential

     negative rho (up, down):  1.119E-04 0.000E+00
     extrapolated charge   29.88943, renormalised to   30.00000

     total cpu time spent up to now is       84.9 secs

     Self-consistent Calculation

     iteration #  1     ecut=    60.00 Ry     beta= 0.70
     Davidson diagonalization with overlap
     ethr =  1.00E-06,  avg # of iterations =  9.7

     negative rho (up, down):  3.833E-05 0.000E+00

     total cpu time spent up to now is       87.7 secs

     total energy              =    -369.16691917 Ry
     estimated scf accuracy    <       0.00574412 Ry

     iteration #  2     ecut=    60.00 Ry     beta= 0.70
     Davidson diagonalization with overlap
     ethr =  1.91E-05,  avg # of iterations =  7.2

     negative rho (up, down):  1.329E-05 0.000E+00

     total cpu time spent up to now is       90.0 secs

     total energy              =    -369.17505958 Ry
     estimated scf accuracy    <       0.01257127 Ry

     iteration #  3     ecut=    60.00 Ry     beta= 0.70
     Davidson diagonalization with overlap
     ethr =  1.91E-05,  avg # of iterations =  3.8

     negative rho (up, down):  8.656E-06 0.000E+00

     total cpu time spent up to now is       91.7 secs

     total energy              =    -369.17587423 Ry
     estimated scf accuracy    <       0.00202197 Ry

     iteration #  4     ecut=    60.00 Ry     beta= 0.70
     Davidson diagonalization with overlap
     ethr =  6.74E-06,  avg # of iterations =  2.0

     negative rho (up, down):  7.221E-06 0.000E+00

     total cpu time spent up to now is       93.1 secs

     total energy              =    -369.17558794 Ry
     estimated scf accuracy    <       0.00129631 Ry

     iteration #  5     ecut=    60.00 Ry     beta= 0.70
     Davidson diagonalization with overlap
     ethr =  4.32E-06,  avg # of iterations =  3.2

     negative rho (up, down):  6.835E-06 0.000E+00

     total cpu time spent up to now is       94.6 secs

     total energy              =    -369.17559446 Ry
     estimated scf accuracy    <       0.00051157 Ry

     iteration #  6     ecut=    60.00 Ry     beta= 0.70
     Davidson diagonalization with overlap
     ethr =  1.71E-06,  avg # of iterations =  1.3

     negative rho (up, down):  6.544E-06 0.000E+00

     total cpu time spent up to now is       96.0 secs

     total energy              =    -369.17555866 Ry
     estimated scf accuracy    <       0.00042259 Ry

     iteration #  7     ecut=    60.00 Ry     beta= 0.70
     Davidson diagonalization with overlap
     ethr =  1.41E-06,  avg # of iterations =  1.2

     negative rho (up, down):  5.669E-06 0.000E+00

     total cpu time spent up to now is       97.3 secs

     total energy              =    -369.17536692 Ry
     estimated scf accuracy    <       0.00033115 Ry

     iteration #  8     ecut=    60.00 Ry     beta= 0.70
     Davidson diagonalization with overlap
     ethr =  1.10E-06,  avg # of iterations =  4.4

     negative rho (up, down):  5.775E-06 0.000E+00

     total cpu time spent up to now is       98.9 secs

     total energy              =    -369.17543216 Ry
     estimated scf accuracy    <       0.00000270 Ry

     iteration #  9     ecut=    60.00 Ry     beta= 0.70
     Davidson diagonalization with overlap
     ethr =  9.00E-09,  avg # of iterations =  2.0

     negative rho (up, down):  5.799E-06 0.000E+00

     total cpu time spent up to now is      100.6 secs

     total energy              =    -369.17543150 Ry
     estimated scf accuracy    <       0.00000442 Ry

     iteration # 10     ecut=    60.00 Ry     beta= 0.70
     Davidson diagonalization with overlap
     ethr =  9.00E-09,  avg # of iterations =  2.0

     negative rho (up, down):  5.852E-06 0.000E+00

     total cpu time spent up to now is      102.3 secs

     total energy              =    -369.17543124 Ry
     estimated scf accuracy    <       0.00000124 Ry

     iteration # 11     ecut=    60.00 Ry     beta= 0.70
     Davidson diagonalization with overlap
     ethr =  4.15E-09,  avg # of iterations =  2.0

     negative rho (up, down):  5.916E-06 0.000E+00

     total cpu time spent up to now is      103.9 secs

     total energy              =    -369.17543131 Ry
     estimated scf accuracy    <       0.00000022 Ry

     iteration # 12     ecut=    60.00 Ry     beta= 0.70
     Davidson diagonalization with overlap
     ethr =  7.37E-10,  avg # of iterations =  1.0

     negative rho (up, down):  5.956E-06 0.000E+00

     total cpu time spent up to now is      105.2 secs

     total energy              =    -369.17543130 Ry
     estimated scf accuracy    <       0.00000009 Ry

     iteration # 13     ecut=    60.00 Ry     beta= 0.70
     Davidson diagonalization with overlap
     ethr =  2.89E-10,  avg # of iterations =  1.0

     negative rho (up, down):  6.022E-06 0.000E+00

     total cpu time spent up to now is      106.6 secs

     total energy              =    -369.17543129 Ry
     estimated scf accuracy    <       0.00000004 Ry

     iteration # 14     ecut=    60.00 Ry     beta= 0.70
     Davidson diagonalization with overlap
     ethr =  1.38E-10,  avg # of iterations =  2.0

     negative rho (up, down):  6.029E-06 0.000E+00

     total cpu time spent up to now is      108.2 secs

     End of self-consistent calculation

          k = 0.0000 0.0000 0.0000 ( 11637 PWs)   bands (ev):

   -29.4330 -29.4330 -29.3519 -29.3519 -29.3085 -29.2343 -29.2343 -29.1991
   -29.1495 -29.1495 -12.3788  -7.2351  -1.5123  -0.9042  -0.9042   0.7176
     1.9408   1.9408   3.5810   3.6280

     occupation numbers 
     1.0000   1.0000   1.0000   1.0000   1.0000   1.0000   1.0000   1.0000
     1.0000   1.0000   1.0000   1.0000   1.0000   1.0000   1.0000   0.0000
     0.0000   0.0000   0.0000   0.0000

          k = 0.0000 0.1289 0.0000 ( 11597 PWs)   bands (ev):

   -29.4321 -29.4262 -29.3510 -29.3475 -29.3065 -29.2373 -29.2347 -29.2010
   -29.1574 -29.1499 -12.2433  -7.2279  -2.0351  -1.4550  -1.2003   1.2057
     2.0211   2.2253   3.7251   3.8097

     occupation numbers 
     1.0000   1.0000   1.0000   1.0000   1.0000   1.0000   1.0000   1.0000
     1.0000   1.0000   1.0000   1.0000   1.0000   1.0000   1.0000   0.0000
     0.0000   0.0000   0.0000   0.0000

          k = 0.0000 0.2579 0.0000 ( 11589 PWs)   bands (ev):

   -29.4297 -29.4068 -29.3490 -29.3355 -29.2999 -29.2461 -29.2365 -29.2066
   -29.1788 -29.1511 -11.8449  -7.3248  -3.3836  -1.7566  -1.4041   0.5586
     2.6297   2.6705   4.0560   4.2284

     occupation numbers 
     1.0000   1.0000   1.0000   1.0000   1.0000   1.0000   1.0000   1.0000
     1.0000   1.0000   1.0000   1.0000   1.0000   1.0000   1.0000   0.0000
     0.0000   0.0000   0.0000   0.0000

          k = 0.0000 0.3868 0.0000 ( 11562 PWs)   bands (ev):

   -29.4268 -29.3805 -29.3445 -29.3179 -29.2889 -29.2599 -29.2422 -29.2226
   -29.2000 -29.1524 -11.2206  -7.8235  -4.0175  -2.2269  -1.7369   0.3612
     2.1926   2.7605   4.5729   4.7369

     occupation numbers 
     1.0000   1.0000   1.0000   1.0000   1.0000   1.0000   1.0000   1.0000
     1.0000   1.0000   1.0000   1.0000   1.0000   1.0000   1.0000   0.0000
     0.0000   0.0000   0.0000   0.0000

          k = 0.0000 0.5157 0.0000 ( 11528 PWs)   bands (ev):

   -29.4249 -29.3644 -29.3287 -29.2977 -29.2803 -29.2776 -29.2527 -29.2472
   -29.2060 -29.1534 -10.5336  -8.5913  -3.9697  -2.4828  -2.2969   0.6279
     1.6648   2.7440   4.2849   5.6808

     occupation numbers 
     1.0000   1.0000   1.0000   1.0000   1.0000   1.0000   1.0000   1.0000
     1.0000   1.0000   1.0000   1.0000   1.0000   1.0000   1.0000   0.0000
     0.0000   0.0000   0.0000   0.0000

          k = 0.1117 0.1934 0.0000 ( 11609 PWs)   bands (ev):

   -29.4305 -29.4129 -29.3488 -29.3404 -29.3020 -29.2437 -29.2351 -29.2047
   -29.1721 -29.1509 -11.9760  -7.2695  -2.9746  -1.8946  -1.3776   1.3718
     1.8086   2.8853   3.9871   4.0981

     occupation numbers 
     1.0000   1.0000   1.0000   1.0000   1.0000   1.0000   1.0000   1.0000
     1.0000   1.0000   1.0000   1.0000   1.0000   1.0000   1.0000   0.0000
     0.0000   0.0000   0.0000   0.0000

          k = 0.1117 0.3223 0.0000 ( 11566 PWs)   bands (ev):

   -29.4280 -29.3888 -29.3451 -29.3280 -29.2919 -29.2563 -29.2370 -29.2146
   -29.1950 -29.1525 -11.4600  -7.5681  -3.7500  -2.6530  -1.4515   0.9687
     2.2027   2.7500   4.4146   4.5930

     occupation numbers 
     1.0000   1.0000   1.0000   1.0000   1.0000   1.0000   1.0000   1.0000
     1.0000   1.0000   1.0000   1.0000   1.0000   1.0000   1.0000   0.0000
     0.0000   0.0000   0.0000   0.0000

          k = 0.1117 0.4513 0.0000 ( 11528 PWs)   bands (ev):

   -29.4256 -29.3641 -29.3362 -29.3112 -29.2796 -29.2731 -29.2438 -29.2390
   -29.2071 -29.1540 -10.7650  -8.2694  -3.9831  -2.9910  -1.9370   1.0041
     1.9763   2.4720   4.6512   5.3205

     occupation numbers 
     1.0000   1.0000   1.0000   1.0000   1.0000   1.0000   1.0000   1.0000
     1.0000   1.0000   1.0000   1.0000   1.0000   1.0000   1.0000   0.0000
     0.0000   0.0000   0.0000   0.0000

          k = 0.1117 0.5802 0.0000 ( 11540 PWs)   bands (ev):

   -29.4247 -29.3571 -29.3202 -29.2951 -29.2922 -29.2744 -29.2568 -29.2476
   -29.2096 -29.1547 -10.2779  -8.8094  -3.9833  -2.9028  -2.3958   1.4009
     1.4505   2.4962   4.3755   6.3867

     occupation numbers 
     1.0000   1.0000   1.0000   1.0000   1.0000   1.0000   1.0000   1.0000
     1.0000   1.0000   1.0000   1.0000   1.0000   1.0000   1.0000   0.0000
     0.0000   0.0000   0.0000   0.0000

          k = 0.2233 0.3868 0.0000 ( 11545 PWs)   bands (ev):

   -29.4261 -29.3623 -29.3378 -29.3197 -29.2783 -29.2735 -29.2368 -29.2357
   -29.2090 -29.1548 -10.8536  -8.1093  -3.6974  -3.6553  -1.7361   1.4097
     1.6226   3.0422   4.9101   5.2518

     occupation numbers 
     1.0000   1.0000   1.0000   1.0000   1.0000   1.0000   1.0000   1.0000
[...]
        k(    2) = (   0.0000000   0.1111111   0.0000000), wk =   0.1481481
        k(    3) = (   0.0000000   0.2222222   0.0000000), wk =   0.1481481
        k(    4) = (   0.0000000   0.3333333   0.0000000), wk =   0.1481481
        k(    5) = (   0.0000000   0.4444444   0.0000000), wk =   0.1481481
        k(    6) = (   0.1111111   0.1111111   0.0000000), wk =   0.1481481
        k(    7) = (   0.1111111   0.2222222   0.0000000), wk =   0.2962963
        k(    8) = (   0.1111111   0.3333333   0.0000000), wk =   0.2962963
        k(    9) = (   0.1111111   0.4444444   0.0000000), wk =   0.1481481
        k(   10) = (   0.2222222   0.2222222   0.0000000), wk =   0.1481481
        k(   11) = (   0.2222222   0.3333333   0.0000000), wk =   0.2962963
        k(   12) = (   0.3333333   0.3333333   0.0000000), wk =   0.0493827

     Dense  grid:   355571 G-vectors     FFT dimensions: (  60,  60, 225)

     Smooth grid:    89869 G-vectors     FFT dimensions: (  40,  40, 144)

     Dynamical RAM for                 wfc:       0.86 MB

     Dynamical RAM for     wfc (w. buffer):      11.14 MB

     Dynamical RAM for           str. fact:       1.36 MB

     Dynamical RAM for           local pot:       0.70 MB

     Dynamical RAM for          nlocal pot:       1.54 MB

     Dynamical RAM for                qrad:       3.93 MB

     Dynamical RAM for          rho,v,vnew:       8.77 MB

     Dynamical RAM for               rhoin:       2.92 MB

     Dynamical RAM for            rho*nmix:      21.70 MB

     Dynamical RAM for           G-vectors:       5.26 MB

     Dynamical RAM for          h,s,v(r/c):       0.07 MB

     Dynamical RAM for          <psi|beta>:       0.01 MB

     Dynamical RAM for                 psi:       1.71 MB

     Dynamical RAM for                hpsi:       1.71 MB

     Dynamical RAM for                spsi:       1.71 MB

     Dynamical RAM for      wfcinit/wfcrot:       1.72 MB

     Dynamical RAM for           addusdens:     255.01 MB

     Dynamical RAM for          addusforce:     258.41 MB

     Dynamical RAM for         addusstress:     272.65 MB

     Estimated static dynamical RAM per process >      67.86 MB

     Estimated max dynamical RAM per process >     340.51 MB

     Estimated total dynamical RAM >       1.33 GB

     Initial potential from superposition of free atoms

     starting charge   27.99998, renormalised to   30.00000

     negative rho (up, down):  2.087E-03 0.000E+00
     Starting wfcs are   18 randomized atomic wfcs +    2 random wfcs

     total cpu time spent up to now is      290.9 secs

     Self-consistent Calculation

     iteration #  1     ecut=    60.00 Ry     beta= 0.70
     Davidson diagonalization with overlap
     c_bands:  1 eigenvalues not converged
     c_bands:  1 eigenvalues not converged
     c_bands:  1 eigenvalues not converged
     ethr =  1.00E-06,  avg # of iterations = 17.0

     negative rho (up, down):  1.840E-05 0.000E+00

     total cpu time spent up to now is      295.4 secs

     total energy              =    -368.26341496 Ry
     estimated scf accuracy    <       2.32265833 Ry

     iteration #  2     ecut=    60.00 Ry     beta= 0.70
     Davidson diagonalization with overlap
     ethr =  7.74E-03,  avg # of iterations =  2.7

     negative rho (up, down):  3.900E-07 0.000E+00

     total cpu time spent up to now is      297.2 secs

     total energy              =    -369.08826364 Ry
     estimated scf accuracy    <       0.43727165 Ry

     iteration #  3     ecut=    60.00 Ry     beta= 0.70
     Davidson diagonalization with overlap
     ethr =  1.46E-03,  avg # of iterations =  2.2

     total cpu time spent up to now is      298.9 secs

     total energy              =    -369.17438450 Ry
     estimated scf accuracy    <       0.00762752 Ry

     iteration #  4     ecut=    60.00 Ry     beta= 0.70
     Davidson diagonalization with overlap
     ethr =  2.54E-05,  avg # of iterations =  6.6

     negative rho (up, down):  3.111E-07 0.000E+00

     total cpu time spent up to now is      301.1 secs

     total energy              =    -369.17555494 Ry
     estimated scf accuracy    <       0.00048178 Ry

     iteration #  5     ecut=    60.00 Ry     beta= 0.70
     Davidson diagonalization with overlap
     c_bands:  1 eigenvalues not converged
     ethr =  1.61E-06,  avg # of iterations =  6.6

     negative rho (up, down):  1.684E-06 0.000E+00

     total cpu time spent up to now is      302.9 secs

     total energy              =    -369.17558132 Ry
     estimated scf accuracy    <       0.00024904 Ry

     iteration #  6     ecut=    60.00 Ry     beta= 0.70
     Davidson diagonalization with overlap
     c_bands:  1 eigenvalues not converged
     ethr =  8.30E-07,  avg # of iterations =  3.5

     negative rho (up, down):  2.447E-06 0.000E+00

     total cpu time spent up to now is      304.5 secs

     total energy              =    -369.17561819 Ry
     estimated scf accuracy    <       0.00009325 Ry

     iteration #  7     ecut=    60.00 Ry     beta= 0.70
     Davidson diagonalization with overlap
     ethr =  3.11E-07,  avg # of iterations =  2.2

     negative rho (up, down):  3.412E-06 0.000E+00

     total cpu time spent up to now is      306.0 secs

     total energy              =    -369.17562998 Ry
     estimated scf accuracy    <       0.00000022 Ry

     iteration #  8     ecut=    60.00 Ry     beta= 0.70
     Davidson diagonalization with overlap
     ethr =  7.21E-10,  avg # of iterations =  3.3

     negative rho (up, down):  3.473E-06 0.000E+00

     total cpu time spent up to now is      307.8 secs

     total energy              =    -369.17563010 Ry
     estimated scf accuracy    <       0.00000005 Ry

     iteration #  9     ecut=    60.00 Ry     beta= 0.70
     Davidson diagonalization with overlap
     ethr =  1.75E-10,  avg # of iterations =  2.0

     negative rho (up, down):  3.508E-06 0.000E+00

     total cpu time spent up to now is      309.2 secs

     End of self-consistent calculation

          k = 0.0000 0.0000 0.0000 ( 11241 PWs)   bands (ev):

   -29.3434 -29.3434 -29.2595 -29.2595 -29.2194 -29.1400 -29.1400 -29.1047
   -29.0530 -29.0530 -12.3651  -7.2100  -1.5188  -0.7035  -0.7035   0.9732
     2.1200   2.1200   3.6540   3.6894

     occupation numbers 
     1.0000   1.0000   1.0000   1.0000   1.0000   1.0000   1.0000   1.0000
     1.0000   1.0000   1.0000   1.0000   1.0000   1.0000   1.0000   0.0000
     0.0000   0.0000   0.0000   0.0000

          k = 0.0000 0.1302 0.0000 ( 11285 PWs)   bands (ev):

   -29.3424 -29.3364 -29.2588 -29.2551 -29.2171 -29.1431 -29.1405 -29.1065
   -29.0613 -29.0534 -12.2259  -7.1913  -1.8728  -1.4532  -1.0124   1.3967
     2.2359   2.4062   3.8004   3.8887

     occupation numbers 
     1.0000   1.0000   1.0000   1.0000   1.0000   1.0000   1.0000   1.0000
     1.0000   1.0000   1.0000   1.0000   1.0000   1.0000   1.0000   0.0000
     0.0000   0.0000   0.0000   0.0000

          k = 0.0000 0.2603 0.0000 ( 11276 PWs)   bands (ev):

   -29.3397 -29.3164 -29.2572 -29.2427 -29.2095 -29.1518 -29.1427 -29.1115
   -29.0840 -29.0545 -11.8166  -7.2528  -3.2937  -1.5885  -1.3739   0.6796
     2.7940   2.8355   4.1272   4.3151

     occupation numbers 
     1.0000   1.0000   1.0000   1.0000   1.0000   1.0000   1.0000   1.0000
     1.0000   1.0000   1.0000   1.0000   1.0000   1.0000   1.0000   0.0000
     0.0000   0.0000   0.0000   0.0000

          k = 0.0000 0.3905 0.0000 ( 11232 PWs)   bands (ev):

   -29.3366 -29.2891 -29.2535 -29.2247 -29.1972 -29.1657 -29.1494 -29.1258
   -29.1076 -29.0558 -11.1741  -7.7193  -3.9858  -2.0735  -1.6811   0.4451
     2.2900   2.8964   4.6545   4.8162

     occupation numbers 
     1.0000   1.0000   1.0000   1.0000   1.0000   1.0000   1.0000   1.0000
     1.0000   1.0000   1.0000   1.0000   1.0000   1.0000   1.0000   0.0000
     0.0000   0.0000   0.0000   0.0000

          k = 0.0000 0.5207 0.0000 ( 11234 PWs)   bands (ev):

   -29.3345 -29.2725 -29.2375 -29.2042 -29.1875 -29.1836 -29.1607 -29.1516
   -29.1133 -29.0567 -10.4638  -8.4957  -3.9412  -2.3369  -2.2595   0.7472
     1.7062   2.8637   4.3353   5.7730

     occupation numbers 
     1.0000   1.0000   1.0000   1.0000   1.0000   1.0000   1.0000   1.0000
     1.0000   1.0000   1.0000   1.0000   1.0000   1.0000   1.0000   0.0000
     0.0000   0.0000   0.0000   0.0000

          k = 0.1127 0.1952 0.0000 ( 11259 PWs)   bands (ev):

   -29.3406 -29.3227 -29.2567 -29.2479 -29.2118 -29.1496 -29.1411 -29.1099
   -29.0768 -29.0543 -11.9513  -7.2089  -2.8583  -1.7422  -1.3561   1.5084
     2.0083   3.0595   4.0733   4.1903

     occupation numbers 
     1.0000   1.0000   1.0000   1.0000   1.0000   1.0000   1.0000   1.0000
     1.0000   1.0000   1.0000   1.0000   1.0000   1.0000   1.0000   0.0000
     0.0000   0.0000   0.0000   0.0000

          k = 0.1127 0.3254 0.0000 ( 11241 PWs)   bands (ev):

   -29.3378 -29.2979 -29.2535 -29.2355 -29.2004 -29.1623 -29.1434 -29.1182
   -29.1021 -29.0559 -11.4207  -7.4699  -3.6964  -2.5287  -1.3992   1.0659
     2.3307   2.9048   4.5024   4.6867

     occupation numbers 
     1.0000   1.0000   1.0000   1.0000   1.0000   1.0000   1.0000   1.0000
     1.0000   1.0000   1.0000   1.0000   1.0000   1.0000   1.0000   0.0000
     0.0000   0.0000   0.0000   0.0000

          k = 0.1127 0.4556 0.0000 ( 11219 PWs)   bands (ev):

   -29.3352 -29.2723 -29.2451 -29.2183 -29.1866 -29.1794 -29.1512 -29.1427
   -29.1147 -29.0574 -10.7045  -8.1624  -3.9500  -2.8885  -1.8764   1.0775
     2.0832   2.5822   4.7327   5.4038

     occupation numbers 
     1.0000   1.0000   1.0000   1.0000   1.0000   1.0000   1.0000   1.0000
     1.0000   1.0000   1.0000   1.0000   1.0000   1.0000   1.0000   0.0000
     0.0000   0.0000   0.0000   0.0000

          k = 0.1127 0.5857 0.0000 ( 11216 PWs)   bands (ev):

   -29.3342 -29.2652 -29.2286 -29.2016 -29.1994 -29.1808 -29.1608 -29.1558
   -29.1169 -29.0581 -10.1995  -8.7158  -3.9383  -2.8005  -2.3596   1.4326
     1.6089   2.5771   4.4362   6.4832

     occupation numbers 
     1.0000   1.0000   1.0000   1.0000   1.0000   1.0000   1.0000   1.0000
     1.0000   1.0000   1.0000   1.0000   1.0000   1.0000   1.0000   0.0000
     0.0000   0.0000   0.0000   0.0000

          k = 0.2254 0.3905 0.0000 ( 11201 PWs)   bands (ev):

   -29.3356 -29.2707 -29.2462 -29.2274 -29.1852 -29.1801 -29.1435 -29.1392
   -29.1171 -29.0583 -10.7967  -7.9958  -3.6219  -3.6116  -1.6704   1.4686
     1.6811   3.2249   5.0744   5.3369

     occupation numbers 
     1.0000   1.0000   1.0000   1.0000   1.0000   1.0000   1.0000   1.0000
     1.0000   1.0000   1.0000   1.0000   1.0000   1.0000   1.0000   0.0000
     0.0000   0.0000   0.0000   0.0000

          k = 0.2254 0.5207 0.0000 ( 11215 PWs)   bands (ev):

   -29.3342 -29.2506 -29.2317 -29.2127 -29.2019 -29.1735 -29.1666 -29.1454
   -29.1243 -29.0601 -10.0698  -8.7209  -4.2014  -3.1642  -2.2215   0.9512
     2.2821   2.9508   5.2758   6.2111

     occupation numbers 
     1.0000   1.0000   1.0000   1.0000   1.0000   1.0000   1.0000   1.0000
     1.0000   1.0000   1.0000   1.0000   1.0000   1.0000   1.0000   0.0000
     0.0000   0.0000   0.0000   0.0000

          k = 0.3382 0.5857 0.0000 ( 11256 PWs)   bands (ev):

   -29.3337 -29.2282 -29.2261 -29.2259 -29.1934 -29.1933 -29.1663 -29.1360
   -29.1359 -29.0614  -9.3716  -9.3716  -4.5127  -2.6843  -2.6842   0.5855
     2.8454   2.8454   5.8865   6.7394

     occupation numbers 
     1.0000   1.0000   1.0000   1.0000   1.0000   1.0000   1.0000   1.0000
     1.0000   1.0000   1.0000   1.0000   1.0000   1.0000   1.0000   0.0000
     0.0000   0.0000   0.0000   0.0000

     highest occupied, lowest unoccupied level (ev):    -0.7035    0.4451

!    total energy              =    -369.17563010 Ry
     estimated scf accuracy    <          6.2E-09 Ry

     The total energy is the sum of the following terms:
     one-electron contribution =    -811.15514745 Ry
     hartree contribution      =     411.02742069 Ry
     xc contribution           =     -87.07447224 Ry
     ewald contribution        =     118.02656889 Ry

     convergence has been achieved in   9 iterations

     negative rho (up, down):  3.508E-06 0.000E+00

     Forces acting on atoms (cartesian axes, Ry/au):

     atom    1 type  1   force =     0.00000000    0.00000000    0.00002843
     atom    2 type  1   force =    -0.00000000   -0.00000000   -0.00002843
     The non-local contrib.  to forces
     atom    1 type  1   force =    -0.00000000   -0.00000000    0.51088330
     atom    2 type  1   force =    -0.00000000   -0.00000000   -0.51082415
     The ionic contribution  to forces
     atom    1 type  1   force =    -0.00000001    0.00000001  -36.37877783
     atom    2 type  1   force =     0.00000001   -0.00000001   36.37877783
     The local contribution  to forces
     atom    1 type  1   force =     0.00000000   -0.00000000   35.86651671
     atom    2 type  1   force =     0.00000040   -0.00000023  -35.86676976
     The core correction contribution to forces
     atom    1 type  1   force =    -0.00000000    0.00000000    0.00119375
     atom    2 type  1   force =     0.00000003   -0.00000002   -0.00120102
     The Hubbard contrib.    to forces
     atom    1 type  1   force =     0.00000000    0.00000000    0.00000000
     atom    2 type  1   force =     0.00000000    0.00000000    0.00000000
     The SCF correction term to forces
     atom    1 type  1   force =     0.00000000   -0.00000000    0.00000000
     atom    2 type  1   force =    -0.00000000    0.00000000    0.00003538

     Total force =     0.000028     Total SCF correction =     0.000035
     SCF correction compared to forces is large: reduce conv_thr to get better values


     Computing stress (Cartesian axis) and pressure


     negative rho (up, down):  3.508E-06 0.000E+00
          total   stress  (Ry/bohr**3)                   (kbar)     P=        0.23
   0.00000194   0.00000000   0.00000000            0.28        0.00        0.00
   0.00000000   0.00000194   0.00000000            0.00        0.28        0.00
   0.00000000   0.00000000   0.00000081            0.00        0.00        0.12

     kinetic stress (kbar)   4883.03     -0.00      0.00
                               -0.00   4883.03      0.00
                                0.00      0.00   4908.46

     local   stress (kbar) -64819.45      0.00     -0.00
                                0.00 -64819.45      0.00
                               -0.00      0.00  65573.38

     nonloc. stress (kbar)     43.65     -0.00      0.00
                                0.00     43.65      0.00
                                0.00      0.00     62.05

     hartree stress (kbar)  35112.32     -0.00      0.00
                               -0.00  35112.32     -0.00
                                0.00     -0.00 -27993.31

     exc-cor stress (kbar)   2972.80     -0.00      0.00
                               -0.00   2972.80     -0.00
                                0.00     -0.00   2971.88

     corecor stress (kbar)  -4677.56      0.00      0.00
                                0.00  -4677.56     -0.00
                                0.00     -0.00  -4678.09

     ewald   stress (kbar)  26485.49     -0.00      0.00
                               -0.00  26485.49     -0.00
                                0.00     -0.00 -40844.25

     hubbard stress (kbar)      0.00      0.00      0.00
                                0.00      0.00      0.00
                                0.00      0.00      0.00

     DFT-D   stress (kbar)      0.00      0.00      0.00
                                0.00      0.00      0.00
                                0.00      0.00      0.00

     XDM     stress (kbar)      0.00      0.00      0.00
                                0.00      0.00      0.00
                                0.00      0.00      0.00

     dft-nl  stress (kbar)      0.00      0.00      0.00
                                0.00      0.00      0.00
                                0.00      0.00      0.00

     TS-vdW  stress (kbar)      0.00      0.00      0.00
                                0.00      0.00      0.00
                                0.00      0.00      0.00



     Writing output data file ./tmp/Sb.save/

     init_run     :      3.03s CPU      3.37s WALL (       2 calls)
     electrons    :    210.73s CPU    239.63s WALL (      12 calls)
     update_pot   :     13.25s CPU     13.55s WALL (      10 calls)
     forces       :     12.25s CPU     13.22s WALL (      12 calls)
     stress       :     39.78s CPU     41.92s WALL (      12 calls)

     Called by init_run:
     wfcinit      :      0.57s CPU      0.61s WALL (       2 calls)
     wfcinit:atom :      0.01s CPU      0.01s WALL (      24 calls)
     wfcinit:wfcr :      0.54s CPU      0.59s WALL (      24 calls)
     potinit      :      0.72s CPU      0.78s WALL (       2 calls)
     hinit0       :      1.35s CPU      1.38s WALL (       2 calls)

     Called by electrons:
     c_bands      :    135.86s CPU    148.94s WALL (     141 calls)
     sum_band     :     43.56s CPU     51.38s WALL (     141 calls)
     v_of_rho     :     10.61s CPU     11.80s WALL (     153 calls)
     v_h          :      0.83s CPU      0.97s WALL (     153 calls)
     v_xc         :     11.59s CPU     12.86s WALL (     177 calls)
     newd         :     20.44s CPU     27.56s WALL (     153 calls)
     mix_rho      :      1.46s CPU      1.68s WALL (     141 calls)

     Called by c_bands:
     init_us_2    :      1.57s CPU      2.11s WALL (    3696 calls)
     cegterg      :    131.96s CPU    144.78s WALL (    1692 calls)

     Called by sum_band:
     sum_band:wei :      0.00s CPU      0.00s WALL (     141 calls)
     sum_band:loo :     22.20s CPU     23.27s WALL (     141 calls)
     sum_band:buf :      0.21s CPU      0.22s WALL (    1692 calls)
     sum_band:ini :      0.72s CPU      1.03s WALL (    1692 calls)
     sum_band:cal :      2.21s CPU      2.63s WALL (    1692 calls)
     sum_band:bec :      0.02s CPU      0.02s WALL (    1692 calls)
     addusdens    :     19.01s CPU     25.58s WALL (     141 calls)
     addusd:skk   :      0.05s CPU      0.08s WALL (     141 calls)
     addusd:dgemm :      2.49s CPU      6.25s WALL (     141 calls)
     addusd:qvan2 :     14.71s CPU     16.20s WALL (     141 calls)

     Called by *egterg:
     cdiaghg      :      2.14s CPU      2.57s WALL (    7374 calls)
     cegterg:over :      8.44s CPU     10.54s WALL (    5802 calls)
     cegterg:upda :      3.84s CPU      4.98s WALL (    5802 calls)
     cegterg:last :      6.05s CPU      7.57s WALL (    3537 calls)
     h_psi        :    103.38s CPU    108.68s WALL (    7518 calls)
     s_psi        :      3.49s CPU      4.64s WALL (    7518 calls)
     g_psi        :      0.24s CPU      0.24s WALL (    5802 calls)

     Called by h_psi:
     h_psi:calbec :      7.45s CPU      8.92s WALL (    7518 calls)
     vloc_psi     :     91.06s CPU     93.06s WALL (    7518 calls)
     add_vuspsi   :      4.36s CPU      5.96s WALL (    7518 calls)

     General routines
     calbec       :     10.40s CPU     12.47s WALL (    9930 calls)
     fft          :     10.32s CPU     11.07s WALL (    2275 calls)
     ffts         :      0.26s CPU      0.30s WALL (     294 calls)
     fftw         :    102.26s CPU    104.47s WALL (  213866 calls)
     interpolate  :      0.76s CPU      0.91s WALL (     153 calls)

     Parallel routines
     fft_scatt_xy :     10.20s CPU     10.52s WALL (  216435 calls)
     fft_scatt_yz :     17.68s CPU     18.30s WALL (  216435 calls)

     PWSCF        :   4m40.60s CPU   5m13.90s WALL


   This run was terminated on:  15:34:12  30Apr2026            

=------------------------------------------------------------------------------=
   JOB DONE.
=------------------------------------------------------------------------------=
Note: The following floating-point exceptions are signalling: IEEE_INVALID_FLAG IEEE_DIVIDE_BY_ZERO IEEE_UNDERFLOW_FLAG
