
     Program PWSCF v.6.7MaX starts on 30Apr2026 at 17:23:51 

     This program is part of the open-source Quantum ESPRESSO suite
     for quantum simulation of materials; please cite
         "P. Giannozzi et al., J. Phys.:Condens. Matter 21 395502 (2009);
         "P. Giannozzi et al., J. Phys.:Condens. Matter 29 465901 (2017);
          URL http://www.quantum-espresso.org", 
     in publications or presentations arising from this work. More details at
     http://www.quantum-espresso.org/quote

     Parallel version (MPI & OpenMP), running on       4 processor cores
     Number of MPI processes:                 4
     Threads/MPI process:                     1

     MPI processes distributed on     1 nodes
     R & G space division:  proc/nbgrp/npool/nimage =       4
     Waiting for input...
     Reading input from standard input

     Current dimensions of program PWSCF are:
     Max number of different atomic species (ntypx) = 10
     Max number of k-points (npk) =  40000
     Max angular momentum in pseudopotentials (lmaxx) =  3

     File ./tmp/Sb.update deleted, as requested

     File ./tmp/Sb.bfgs deleted, as requested

     Subspace diagonalization in iterative solution of the eigenvalue problem:
     a serial algorithm will be used


     Parallelization info
     --------------------
     sticks:   dense  smooth     PW     G-vecs:    dense   smooth      PW
     Min         601     238     70                88855    22452    3435
     Max         602     239     72                88870    22473    3438
     Sum        2407     955    283               355463    89869   13749



     bravais-lattice index     =            4
     lattice parameter (alat)  =       7.6362  a.u.
     unit-cell volume          =    1431.4309 (a.u.)^3
     number of atoms/cell      =            2
     number of atomic types    =            1
     number of electrons       =        30.00
     number of Kohn-Sham states=           20
     kinetic-energy cutoff     =      60.0000  Ry
     charge density cutoff     =     600.0000  Ry
     scf convergence threshold =      8.0E-10
     mixing beta               =       0.5000
     number of iterations used =            8  plain     mixing
     energy convergence thresh.=      1.0E-04
     force convergence thresh. =      1.0E-03
     press convergence thresh. =      1.0E-03
     Exchange-correlation= SLA  PW   PSX  PSC
                           (   1   4  10   8   0   0   0)
     nstep                     =           50


     celldm(1)=   7.636157  celldm(2)=   0.000000  celldm(3)=   3.712063
     celldm(4)=   0.000000  celldm(5)=   0.000000  celldm(6)=   0.000000

     crystal axes: (cart. coord. in units of alat)
               a(1) = (   1.000000   0.000000   0.000000 )  
               a(2) = (  -0.500000   0.866025   0.000000 )  
               a(3) = (   0.000000   0.000000   3.712063 )  

     reciprocal axes: (cart. coord. in units 2 pi/alat)
               b(1) = (  1.000000  0.577350 -0.000000 )  
               b(2) = (  0.000000  1.154701  0.000000 )  
               b(3) = (  0.000000 -0.000000  0.269392 )  


     PseudoPot. # 1 for Sb read from file:
     /Users/cdhogan/Research/Codes/espresso/PSEUDO/GBRV-PBEsol-1.5/sb_pbesol_v1.4.uspp.F.UPF
     MD5 check sum: b66a27f2c95be5fc87b0bb5ef8c6d7fd
     Pseudo is Ultrasoft + core correction, Zval = 15.0
     Generated by new atomic code, or converted to UPF format
     Using radial grid of  891 points,  6 beta functions with: 
                l(1) =   0
                l(2) =   0
                l(3) =   1
                l(4) =   1
                l(5) =   2
                l(6) =   2
     Q(r) pseudized with  8 coefficients,  rinner =    1.350   1.350   1.350
                                                       1.350   1.350

     atomic species   valence    mass     pseudopotential
        Sb            15.00    12.01100     Sb( 1.00)

      6 Sym. Ops. (no inversion) found


                                    s                        frac. trans.

      isym =  1     identity                                     

 cryst.   s( 1) = (     1          0          0      )
                  (     0          1          0      )
                  (     0          0          1      )

 cart.    s( 1) = (  1.0000000  0.0000000  0.0000000 )
                  (  0.0000000  1.0000000  0.0000000 )
                  (  0.0000000  0.0000000  1.0000000 )


      isym =  2     120 deg rotation - cryst. axis [0,0,1]       

 cryst.   s( 2) = (     0          1          0      )
                  (    -1         -1          0      )
                  (     0          0          1      )

 cart.    s( 2) = ( -0.5000000 -0.8660254  0.0000000 )
                  (  0.8660254 -0.5000000  0.0000000 )
                  (  0.0000000  0.0000000  1.0000000 )


      isym =  3     120 deg rotation - cryst. axis [0,0,-1]      

 cryst.   s( 3) = (    -1         -1          0      )
                  (     1          0          0      )
                  (     0          0          1      )

 cart.    s( 3) = ( -0.5000000  0.8660254  0.0000000 )
                  ( -0.8660254 -0.5000000  0.0000000 )
                  (  0.0000000  0.0000000  1.0000000 )


      isym =  4     inv. 180 deg rotation - cart. axis [1,0,0]   

 cryst.   s( 4) = (    -1          0          0      )
                  (     1          1          0      )
                  (     0          0          1      )

 cart.    s( 4) = ( -1.0000000  0.0000000  0.0000000 )
                  (  0.0000000  1.0000000  0.0000000 )
                  (  0.0000000  0.0000000  1.0000000 )


      isym =  5     inv. 180 deg rotation - cryst. axis [0,1,0]  

 cryst.   s( 5) = (     1          1          0      )
                  (     0         -1          0      )
                  (     0          0          1      )

 cart.    s( 5) = (  0.5000000  0.8660254  0.0000000 )
                  (  0.8660254 -0.5000000  0.0000000 )
                  (  0.0000000  0.0000000  1.0000000 )


      isym =  6     inv. 180 deg rotation - cryst. axis [1,1,0]  

 cryst.   s( 6) = (     0         -1          0      )
                  (    -1          0          0      )
                  (     0          0          1      )

 cart.    s( 6) = (  0.5000000 -0.8660254  0.0000000 )
                  ( -0.8660254 -0.5000000  0.0000000 )
                  (  0.0000000  0.0000000  1.0000000 )


     point group C_3v (3m)  
     there are  3 classes
     the character table:

       E     2C3   3s_v 
A_1    1.00  1.00  1.00
A_2    1.00  1.00 -1.00
E      2.00 -1.00  0.00

     the symmetry operations in each class and the name of the first element:

     E        1
          identity                                               
     2C3      2    3
          120 deg rotation - cryst. axis [0,0,1]                 
     3s_v     4    5    6
          inv. 180 deg rotation - cart. axis [1,0,0]             

   Cartesian axes

     site n.     atom                  positions (alat units)
         1           Sb  tau(   1) = (   0.0000000   0.0000000   1.8560314  )
         2           Sb  tau(   2) = (  -0.0000000   0.5773503   2.2612030  )

   Crystallographic axes

     site n.     atom                  positions (cryst. coord.)
         1           Sb  tau(   1) = (  0.0000000  0.0000000  0.5000000  )
         2           Sb  tau(   2) = (  0.3333333  0.6666667  0.6091500  )

     number of k points=    27
                       cart. coord. in units 2pi/alat
        k(    1) = (   0.0000000   0.0000000   0.0000000), wk =   0.0088889
        k(    2) = (   0.0000000   0.0769800   0.0000000), wk =   0.0533333
        k(    3) = (   0.0000000   0.1539601   0.0000000), wk =   0.0533333
        k(    4) = (   0.0000000   0.2309401   0.0000000), wk =   0.0533333
        k(    5) = (   0.0000000   0.3079201   0.0000000), wk =   0.0533333
        k(    6) = (   0.0000000   0.3849002   0.0000000), wk =   0.0533333
        k(    7) = (   0.0000000   0.4618802   0.0000000), wk =   0.0533333
        k(    8) = (   0.0000000   0.5388603   0.0000000), wk =   0.0533333
        k(    9) = (   0.0666667   0.1154701   0.0000000), wk =   0.0533333
        k(   10) = (   0.0666667   0.1924501   0.0000000), wk =   0.1066667
        k(   11) = (   0.0666667   0.2694301   0.0000000), wk =   0.1066667
        k(   12) = (   0.0666667   0.3464102   0.0000000), wk =   0.1066667
        k(   13) = (   0.0666667   0.4233902   0.0000000), wk =   0.1066667
        k(   14) = (   0.0666667   0.5003702   0.0000000), wk =   0.1066667
        k(   15) = (   0.0666667   0.5773503   0.0000000), wk =   0.0533333
        k(   16) = (   0.1333333   0.2309401   0.0000000), wk =   0.0533333
        k(   17) = (   0.1333333   0.3079201   0.0000000), wk =   0.1066667
        k(   18) = (   0.1333333   0.3849002   0.0000000), wk =   0.1066667
        k(   19) = (   0.1333333   0.4618802   0.0000000), wk =   0.1066667
        k(   20) = (   0.1333333   0.5388603   0.0000000), wk =   0.1066667
        k(   21) = (   0.2000000   0.3464102   0.0000000), wk =   0.0533333
        k(   22) = (   0.2000000   0.4233902   0.0000000), wk =   0.1066667
        k(   23) = (   0.2000000   0.5003702   0.0000000), wk =   0.1066667
        k(   24) = (   0.2000000   0.5773503   0.0000000), wk =   0.0533333
        k(   25) = (   0.2666667   0.4618802   0.0000000), wk =   0.0533333
        k(   26) = (   0.2666667   0.5388603   0.0000000), wk =   0.1066667
        k(   27) = (   0.3333333   0.5773503   0.0000000), wk =   0.0177778

                       cryst. coord.
        k(    1) = (   0.0000000   0.0000000   0.0000000), wk =   0.0088889
        k(    2) = (   0.0000000   0.0666667   0.0000000), wk =   0.0533333
        k(    3) = (   0.0000000   0.1333333   0.0000000), wk =   0.0533333
        k(    4) = (   0.0000000   0.2000000   0.0000000), wk =   0.0533333
        k(    5) = (   0.0000000   0.2666667   0.0000000), wk =   0.0533333
        k(    6) = (   0.0000000   0.3333333   0.0000000), wk =   0.0533333
        k(    7) = (   0.0000000   0.4000000   0.0000000), wk =   0.0533333
        k(    8) = (   0.0000000   0.4666667   0.0000000), wk =   0.0533333
        k(    9) = (   0.0666667   0.0666667   0.0000000), wk =   0.0533333
        k(   10) = (   0.0666667   0.1333333   0.0000000), wk =   0.1066667
        k(   11) = (   0.0666667   0.2000000   0.0000000), wk =   0.1066667
        k(   12) = (   0.0666667   0.2666667   0.0000000), wk =   0.1066667
        k(   13) = (   0.0666667   0.3333333   0.0000000), wk =   0.1066667
        k(   14) = (   0.0666667   0.4000000   0.0000000), wk =   0.1066667
        k(   15) = (   0.0666667   0.4666667   0.0000000), wk =   0.0533333
        k(   16) = (   0.1333333   0.1333333   0.0000000), wk =   0.0533333
        k(   17) = (   0.1333333   0.2000000   0.0000000), wk =   0.1066667
        k(   18) = (   0.1333333   0.2666667   0.0000000), wk =   0.1066667
        k(   19) = (   0.1333333   0.3333333   0.0000000), wk =   0.1066667
        k(   20) = (   0.1333333   0.4000000   0.0000000), wk =   0.1066667
        k(   21) = (   0.2000000   0.2000000   0.0000000), wk =   0.0533333
        k(   22) = (   0.2000000   0.2666667   0.0000000), wk =   0.1066667
        k(   23) = (   0.2000000   0.3333333   0.0000000), wk =   0.1066667
        k(   24) = (   0.2000000   0.4000000   0.0000000), wk =   0.0533333
        k(   25) = (   0.2666667   0.2666667   0.0000000), wk =   0.0533333
        k(   26) = (   0.2666667   0.3333333   0.0000000), wk =   0.1066667
        k(   27) = (   0.3333333   0.3333333   0.0000000), wk =   0.0177778

     Dense  grid:   355463 G-vectors     FFT dimensions: (  60,  60, 225)

     Smooth grid:    89869 G-vectors     FFT dimensions: (  40,  40, 144)

     Dynamical RAM for                 wfc:       0.86 MB

     Dynamical RAM for     wfc (w. buffer):      23.99 MB

     Dynamical RAM for           str. fact:       1.36 MB

     Dynamical RAM for           local pot:       0.00 MB

     Dynamical RAM for          nlocal pot:       1.54 MB

     Dynamical RAM for                qrad:       3.93 MB

     Dynamical RAM for          rho,v,vnew:       8.76 MB

     Dynamical RAM for               rhoin:       2.92 MB

     Dynamical RAM for            rho*nmix:      21.70 MB

     Dynamical RAM for           G-vectors:       5.26 MB

     Dynamical RAM for          h,s,v(r/c):       0.07 MB

     Dynamical RAM for          <psi|beta>:       0.01 MB

     Dynamical RAM for                 psi:       1.71 MB

     Dynamical RAM for                hpsi:       1.71 MB

     Dynamical RAM for                spsi:       1.71 MB

     Dynamical RAM for      wfcinit/wfcrot:       1.72 MB

     Dynamical RAM for           addusdens:     254.94 MB

     Dynamical RAM for          addusforce:     258.34 MB

     Dynamical RAM for         addusstress:     272.57 MB

     Estimated static dynamical RAM per process >      80.00 MB

     Estimated max dynamical RAM per process >     352.57 MB

     Estimated total dynamical RAM >       1.38 GB

     Initial potential from superposition of free atoms

     starting charge   27.99998, renormalised to   30.00000

     negative rho (up, down):  2.089E-03 0.000E+00
     Starting wfcs are   18 randomized atomic wfcs +    2 random wfcs

     total cpu time spent up to now is        1.9 secs

     Self-consistent Calculation

     iteration #  1     ecut=    60.00 Ry     beta= 0.50
     Davidson diagonalization with overlap
     ethr =  1.00E-02,  avg # of iterations =  7.3

     negative rho (up, down):  1.388E-04 0.000E+00

     total cpu time spent up to now is        5.5 secs

     total energy              =    -368.63731599 Ry
     estimated scf accuracy    <       2.27613913 Ry

     iteration #  2     ecut=    60.00 Ry     beta= 0.50
     Davidson diagonalization with overlap
     ethr =  7.59E-03,  avg # of iterations =  2.1

     negative rho (up, down):  6.158E-05 0.000E+00

     total cpu time spent up to now is        8.2 secs

     total energy              =    -369.16790252 Ry
     estimated scf accuracy    <       0.05202555 Ry

     iteration #  3     ecut=    60.00 Ry     beta= 0.50
     Davidson diagonalization with overlap
     ethr =  1.73E-04,  avg # of iterations =  6.1

     negative rho (up, down):  2.708E-05 0.000E+00

     total cpu time spent up to now is       11.1 secs

     total energy              =    -369.17586202 Ry
     estimated scf accuracy    <       0.00405755 Ry

     iteration #  4     ecut=    60.00 Ry     beta= 0.50
     Davidson diagonalization with overlap
     ethr =  1.35E-05,  avg # of iterations =  3.0

     negative rho (up, down):  2.088E-05 0.000E+00

     total cpu time spent up to now is       13.5 secs

     total energy              =    -369.17572187 Ry
     estimated scf accuracy    <       0.00078849 Ry

     iteration #  5     ecut=    60.00 Ry     beta= 0.50
     Davidson diagonalization with overlap
     ethr =  2.63E-06,  avg # of iterations =  5.6

     negative rho (up, down):  4.868E-06 0.000E+00

     total cpu time spent up to now is       16.4 secs

     total energy              =    -369.17564441 Ry
     estimated scf accuracy    <       0.00134914 Ry

     iteration #  6     ecut=    60.00 Ry     beta= 0.50
     Davidson diagonalization with overlap
     ethr =  2.63E-06,  avg # of iterations =  3.5

     negative rho (up, down):  4.425E-07 0.000E+00

     total cpu time spent up to now is       19.0 secs

     total energy              =    -369.17580699 Ry
     estimated scf accuracy    <       0.00000419 Ry

     iteration #  7     ecut=    60.00 Ry     beta= 0.50
     Davidson diagonalization with overlap
     ethr =  1.40E-08,  avg # of iterations =  2.0

     negative rho (up, down):  8.249E-07 0.000E+00

     total cpu time spent up to now is       21.6 secs

     total energy              =    -369.17580783 Ry
     estimated scf accuracy    <       0.00000045 Ry

     iteration #  8     ecut=    60.00 Ry     beta= 0.50
     Davidson diagonalization with overlap
     ethr =  1.52E-09,  avg # of iterations =  2.0

     negative rho (up, down):  1.928E-06 0.000E+00

     total cpu time spent up to now is       24.1 secs

     total energy              =    -369.17580789 Ry
     estimated scf accuracy    <       0.00000002 Ry

     iteration #  9     ecut=    60.00 Ry     beta= 0.50
     Davidson diagonalization with overlap
     ethr =  5.27E-11,  avg # of iterations =  2.3

     negative rho (up, down):  2.664E-06 0.000E+00

     total cpu time spent up to now is       26.9 secs

     total energy              =    -369.17580791 Ry
     estimated scf accuracy    <          1.5E-09 Ry

     iteration # 10     ecut=    60.00 Ry     beta= 0.50
     Davidson diagonalization with overlap
     ethr =  5.16E-12,  avg # of iterations =  2.2

     negative rho (up, down):  3.501E-06 0.000E+00

     total cpu time spent up to now is       29.5 secs

     End of self-consistent calculation

          k = 0.0000 0.0000 0.0000 ( 11241 PWs)   bands (ev):

   -29.3434 -29.3434 -29.2596 -29.2596 -29.2190 -29.1402 -29.1402 -29.1044
   -29.0531 -29.0531 -12.3642  -7.2117  -1.5204  -0.7006  -0.7006   0.9766
     2.1215   2.1215   3.6560   3.6906

     occupation numbers 
     1.0000   1.0000   1.0000   1.0000   1.0000   1.0000   1.0000   1.0000
     1.0000   1.0000   1.0000   1.0000   1.0000   1.0000   1.0000   0.0000
     0.0000   0.0000   0.0000   0.0000

          k = 0.0000 0.0770 0.0000 ( 11257 PWs)   bands (ev):

   -29.3430 -29.3408 -29.2594 -29.2580 -29.2182 -29.1413 -29.1403 -29.1051
   -29.0561 -29.0532 -12.3140  -7.2028  -1.4951  -1.2526  -0.8235   1.3828
     2.0215   2.2394   3.7121   3.7626

     occupation numbers 
     1.0000   1.0000   1.0000   1.0000   1.0000   1.0000   1.0000   1.0000
     1.0000   1.0000   1.0000   1.0000   1.0000   1.0000   1.0000   0.0000
     0.0000   0.0000   0.0000   0.0000

          k = 0.0000 0.1540 0.0000 ( 11295 PWs)   bands (ev):

   -29.3419 -29.3333 -29.2586 -29.2533 -29.2157 -29.1445 -29.1409 -29.1069
   -29.0649 -29.0536 -12.1642  -7.1902  -2.1842  -1.4311  -1.1196   1.2691
     2.4371   2.4992   3.8593   3.9730

     occupation numbers 
     1.0000   1.0000   1.0000   1.0000   1.0000   1.0000   1.0000   1.0000
     1.0000   1.0000   1.0000   1.0000   1.0000   1.0000   1.0000   0.0000
     0.0000   0.0000   0.0000   0.0000

          k = 0.0000 0.2309 0.0000 ( 11284 PWs)   bands (ev):

   -29.3403 -29.3213 -29.2577 -29.2459 -29.2112 -29.1498 -29.1422 -29.1099
   -29.0787 -29.0543 -11.9181  -7.2204  -3.0490  -1.4709  -1.3755   0.8124
     2.7381   2.8278   4.0541   4.2287

     occupation numbers 
     1.0000   1.0000   1.0000   1.0000   1.0000   1.0000   1.0000   1.0000
     1.0000   1.0000   1.0000   1.0000   1.0000   1.0000   1.0000   0.0000
     0.0000   0.0000   0.0000   0.0000

          k = 0.0000 0.3079 0.0000 ( 11252 PWs)   bands (ev):

   -29.3384 -29.3058 -29.2564 -29.2362 -29.2047 -29.1570 -29.1448 -29.1147
   -29.0952 -29.0551 -11.5826  -7.3750  -3.6809  -1.8013  -1.4295   0.4921
     2.6889   2.8672   4.3275   4.5154

     occupation numbers 
     1.0000   1.0000   1.0000   1.0000   1.0000   1.0000   1.0000   1.0000
     1.0000   1.0000   1.0000   1.0000   1.0000   1.0000   1.0000   0.0000
     0.0000   0.0000   0.0000   0.0000

          k = 0.0000 0.3849 0.0000 ( 11232 PWs)   bands (ev):

   -29.3365 -29.2892 -29.2535 -29.2249 -29.1970 -29.1659 -29.1494 -29.1257
   -29.1075 -29.0559 -11.1730  -7.7189  -3.9855  -2.0710  -1.6817   0.4452
     2.2902   2.8962   4.6551   4.8174

     occupation numbers 
     1.0000   1.0000   1.0000   1.0000   1.0000   1.0000   1.0000   1.0000
     1.0000   1.0000   1.0000   1.0000   1.0000   1.0000   1.0000   0.0000
     0.0000   0.0000   0.0000   0.0000

          k = 0.0000 0.4619 0.0000 ( 11222 PWs)   bands (ev):

   -29.3351 -29.2767 -29.2455 -29.2126 -29.1898 -29.1762 -29.1565 -29.1424
   -29.1120 -29.0565 -10.7276  -8.1964  -4.0049  -2.2595  -2.0480   0.6076
     1.9039   2.8782   4.4867   5.3574

     occupation numbers 
     1.0000   1.0000   1.0000   1.0000   1.0000   1.0000   1.0000   1.0000
     1.0000   1.0000   1.0000   1.0000   1.0000   1.0000   1.0000   0.0000
     0.0000   0.0000   0.0000   0.0000

          k = 0.0000 0.5389 0.0000 ( 11222 PWs)   bands (ev):

   -29.3342 -29.2718 -29.2339 -29.2001 -29.1879 -29.1877 -29.1612 -29.1548
   -29.1135 -29.0569 -10.3662  -8.6029  -3.9118  -2.3560  -2.3320   0.8043
     1.6360   2.8581   4.2849   5.9782

     occupation numbers 
     1.0000   1.0000   1.0000   1.0000   1.0000   1.0000   1.0000   1.0000
     1.0000   1.0000   1.0000   1.0000   1.0000   1.0000   1.0000   0.0000
     0.0000   0.0000   0.0000   0.0000

          k = 0.0667 0.1155 0.0000 ( 11283 PWs)   bands (ev):

   -29.3423 -29.3358 -29.2587 -29.2550 -29.2166 -29.1435 -29.1406 -29.1063
   -29.0620 -29.0535 -12.2140  -7.1919  -1.9045  -1.4507  -1.0912   1.7452
     1.7724   2.5905   3.8175   3.9032

     occupation numbers 
     1.0000   1.0000   1.0000   1.0000   1.0000   1.0000   1.0000   1.0000
     1.0000   1.0000   1.0000   1.0000   1.0000   1.0000   1.0000   0.0000
     0.0000   0.0000   0.0000   0.0000

          k = 0.0667 0.1925 0.0000 ( 11279 PWs)   bands (ev):

   -29.3409 -29.3259 -29.2575 -29.2494 -29.2129 -29.1480 -29.1412 -29.1088
   -29.0733 -29.0541 -12.0159  -7.1993  -2.7048  -1.5271  -1.3696   1.3163
     2.2073   2.9582   4.0029   4.1359

     occupation numbers 
     1.0000   1.0000   1.0000   1.0000   1.0000   1.0000   1.0000   1.0000
     1.0000   1.0000   1.0000   1.0000   1.0000   1.0000   1.0000   0.0000
     0.0000   0.0000   0.0000   0.0000

          k = 0.0667 0.2694 0.0000 ( 11255 PWs)   bands (ev):

   -29.3392 -29.3120 -29.2562 -29.2414 -29.2071 -29.1546 -29.1427 -29.1126
   -29.0886 -29.0549 -11.7245  -7.2889  -3.4028  -1.9306  -1.3531   0.9060
     2.5229   2.9682   4.2207   4.4003

     occupation numbers 
     1.0000   1.0000   1.0000   1.0000   1.0000   1.0000   1.0000   1.0000
     1.0000   1.0000   1.0000   1.0000   1.0000   1.0000   1.0000   0.0000
     0.0000   0.0000   0.0000   0.0000

          k = 0.0667 0.3464 0.0000 ( 11225 PWs)   bands (ev):

   -29.3373 -29.2955 -29.2543 -29.2315 -29.1995 -29.1630 -29.1457 -29.1198
   -29.1040 -29.0558 -11.3499  -7.5412  -3.8450  -2.2660  -1.4782   0.6955
     2.6104   2.6599   4.5564   4.7277

     occupation numbers 
     1.0000   1.0000   1.0000   1.0000   1.0000   1.0000   1.0000   1.0000
     1.0000   1.0000   1.0000   1.0000   1.0000   1.0000   1.0000   0.0000
     0.0000   0.0000   0.0000   0.0000

          k = 0.0667 0.4234 0.0000 ( 11214 PWs)   bands (ev):

   -29.3357 -29.2800 -29.2494 -29.2202 -29.1914 -29.1730 -29.1511 -29.1351
   -29.1115 -29.0566 -10.9152  -7.9672  -3.9913  -2.4964  -1.7843   0.7466
     2.1734   2.6944   4.6892   5.1263

     occupation numbers 
     1.0000   1.0000   1.0000   1.0000   1.0000   1.0000   1.0000   1.0000
     1.0000   1.0000   1.0000   1.0000   1.0000   1.0000   1.0000   0.0000
     0.0000   0.0000   0.0000   0.0000

          k = 0.0667 0.5004 0.0000 ( 11227 PWs)   bands (ev):

   -29.3345 -29.2713 -29.2385 -29.2084 -29.1875 -29.1824 -29.1584 -29.1501
   -29.1141 -29.0572 -10.4857  -8.4419  -3.9497  -2.5923  -2.1521   0.9687
     1.7775   2.7104   4.4415   5.7293

     occupation numbers 
     1.0000   1.0000   1.0000   1.0000   1.0000   1.0000   1.0000   1.0000
     1.0000   1.0000   1.0000   1.0000   1.0000   1.0000   1.0000   0.0000
     0.0000   0.0000   0.0000   0.0000

          k = 0.0667 0.5774 0.0000 ( 11218 PWs)   bands (ev):

   -29.3341 -29.2692 -29.2304 -29.1975 -29.1966 -29.1844 -29.1587 -29.1585
   -29.1148 -29.0574 -10.2668  -8.6852  -3.9018  -2.5657  -2.3683   1.1582
     1.5438   2.7192   4.3166   6.3215

     occupation numbers 
     1.0000   1.0000   1.0000   1.0000   1.0000   1.0000   1.0000   1.0000
     1.0000   1.0000   1.0000   1.0000   1.0000   1.0000   1.0000   0.0000
     0.0000   0.0000   0.0000   0.0000

          k = 0.1333 0.2309 0.0000 ( 11239 PWs)   bands (ev):

   -29.3395 -29.3141 -29.2555 -29.2440 -29.2078 -29.1541 -29.1417 -29.1119
   -29.0862 -29.0550 -11.7721  -7.2633  -3.2224  -2.1193  -1.3361   1.4321
     2.0728   3.1265   4.2387   4.3381

     occupation numbers 
     1.0000   1.0000   1.0000   1.0000   1.0000   1.0000   1.0000   1.0000
     1.0000   1.0000   1.0000   1.0000   1.0000   1.0000   1.0000   0.0000
     0.0000   0.0000   0.0000   0.0000

          k = 0.1333 0.3079 0.0000 ( 11233 PWs)   bands (ev):

   -29.3379 -29.2987 -29.2531 -29.2370 -29.2003 -29.1624 -29.1428 -29.1175
   -29.1014 -29.0560 -11.4397  -7.4496  -3.6259  -2.6352  -1.3798   1.2523
     2.1604   3.0347   4.5004   4.6608

     occupation numbers 
     1.0000   1.0000   1.0000   1.0000   1.0000   1.0000   1.0000   1.0000
     1.0000   1.0000   1.0000   1.0000   1.0000   1.0000   1.0000   0.0000
     0.0000   0.0000   0.0000   0.0000

          k = 0.1333 0.3849 0.0000 ( 11214 PWs)   bands (ev):

   -29.3362 -29.2817 -29.2499 -29.2280 -29.1915 -29.1725 -29.1455 -29.1300
   -29.1120 -29.0571 -11.0330  -7.8006  -3.8505  -2.9626  -1.5843   1.1428
     2.1364   2.8065   4.8220   5.0564

     occupation numbers 
     1.0000   1.0000   1.0000   1.0000   1.0000   1.0000   1.0000   1.0000
     1.0000   1.0000   1.0000   1.0000   1.0000   1.0000   1.0000   0.0000
     0.0000   0.0000   0.0000   0.0000

          k = 0.1333 0.4619 0.0000 ( 11215 PWs)   bands (ev):

   -29.3349 -29.2684 -29.2424 -29.2176 -29.1860 -29.1813 -29.1519 -29.1458
   -29.1162 -29.0580 -10.5870  -8.2655  -3.9376  -3.0528  -1.9351   1.2004
     2.0149   2.6190   4.7712   5.5601

     occupation numbers 
     1.0000   1.0000   1.0000   1.0000   1.0000   1.0000   1.0000   1.0000
     1.0000   1.0000   1.0000   1.0000   1.0000   1.0000   1.0000   0.0000
     0.0000   0.0000   0.0000   0.0000

          k = 0.1333 0.5389 0.0000 ( 11215 PWs)   bands (ev):

   -29.3342 -29.2634 -29.2299 -29.2073 -29.1972 -29.1791 -29.1612 -29.1528
   -29.1179 -29.0585 -10.2157  -8.6684  -3.9722  -2.9392  -2.2871   1.3191
     1.8862   2.5359   4.5608   6.2130

     occupation numbers 
     1.0000   1.0000   1.0000   1.0000   1.0000   1.0000   1.0000   1.0000
     1.0000   1.0000   1.0000   1.0000   1.0000   1.0000   1.0000   0.0000
     0.0000   0.0000   0.0000   0.0000

          k = 0.2000 0.3464 0.0000 ( 11221 PWs)   bands (ev):

   -29.3364 -29.2823 -29.2492 -29.2317 -29.1915 -29.1725 -29.1431 -29.1282
   -29.1123 -29.0574 -11.0731  -7.7392  -3.6776  -3.2704  -1.5139   1.5230
     1.7272   3.1758   4.8239   5.0274

     occupation numbers 
     1.0000   1.0000   1.0000   1.0000   1.0000   1.0000   1.0000   1.0000
     1.0000   1.0000   1.0000   1.0000   1.0000   1.0000   1.0000   0.0000
     0.0000   0.0000   0.0000   0.0000

          k = 0.2000 0.4234 0.0000 ( 11219 PWs)   bands (ev):

   -29.3352 -29.2656 -29.2445 -29.2240 -29.1847 -29.1818 -29.1461 -29.1437
   -29.1185 -29.0587 -10.6437  -8.1494  -3.8220  -3.4671  -1.7844   1.3126
     1.8274   3.1298   5.1384   5.5025

     occupation numbers 
     1.0000   1.0000   1.0000   1.0000   1.0000   1.0000   1.0000   1.0000
     1.0000   1.0000   1.0000   1.0000   1.0000   1.0000   1.0000   0.0000
     0.0000   0.0000   0.0000   0.0000

          k = 0.2000 0.5004 0.0000 ( 11215 PWs)   bands (ev):

   -29.3343 -29.2554 -29.2341 -29.2144 -29.1976 -29.1751 -29.1624 -29.1464
   -29.1220 -29.0596 -10.2044  -8.6006  -4.0949  -3.2166  -2.1433   1.0763
     2.1576   2.8827   5.0780   6.0779

     occupation numbers 
     1.0000   1.0000   1.0000   1.0000   1.0000   1.0000   1.0000   1.0000
     1.0000   1.0000   1.0000   1.0000   1.0000   1.0000   1.0000   0.0000
     0.0000   0.0000   0.0000   0.0000

          k = 0.2000 0.5774 0.0000 ( 11230 PWs)   bands (ev):

   -29.3340 -29.2532 -29.2230 -29.2110 -29.2051 -29.1771 -29.1662 -29.1481
   -29.1232 -29.0600  -9.9607  -8.8532  -4.1895  -3.0198  -2.3760   0.9974
     2.5127   2.5516   4.9916   6.3964

     occupation numbers 
     1.0000   1.0000   1.0000   1.0000   1.0000   1.0000   1.0000   1.0000
     1.0000   1.0000   1.0000   1.0000   1.0000   1.0000   1.0000   0.0000
     0.0000   0.0000   0.0000   0.0000

          k = 0.2667 0.4619 0.0000 ( 11231 PWs)   bands (ev):

   -29.3343 -29.2491 -29.2396 -29.2165 -29.1978 -29.1736 -29.1627 -29.1433
   -29.1244 -29.0601 -10.2051  -8.5644  -4.1596  -3.3081  -2.0718   0.9602
     2.1403   3.2064   5.7231   5.9617

     occupation numbers 
     1.0000   1.0000   1.0000   1.0000   1.0000   1.0000   1.0000   1.0000
     1.0000   1.0000   1.0000   1.0000   1.0000   1.0000   1.0000   0.0000
     0.0000   0.0000   0.0000   0.0000

          k = 0.2667 0.5389 0.0000 ( 11227 PWs)   bands (ev):

   -29.3339 -29.2413 -29.2286 -29.2126 -29.2056 -29.1787 -29.1680 -29.1421
   -29.1287 -29.0609  -9.7900  -8.9696  -4.3902  -2.9926  -2.3929   0.7264
     2.5310   2.9935   5.8229   6.0546

     occupation numbers 
     1.0000   1.0000   1.0000   1.0000   1.0000   1.0000   1.0000   1.0000
     1.0000   1.0000   1.0000   1.0000   1.0000   1.0000   1.0000   0.0000
     0.0000   0.0000   0.0000   0.0000

          k = 0.3333 0.5774 0.0000 ( 11256 PWs)   bands (ev):

   -29.3337 -29.2283 -29.2263 -29.2262 -29.1931 -29.1931 -29.1665 -29.1358
   -29.1358 -29.0614  -9.3703  -9.3703  -4.5114  -2.6845  -2.6845   0.5838
     2.8442   2.8442   5.8868   6.7425

     occupation numbers 
     1.0000   1.0000   1.0000   1.0000   1.0000   1.0000   1.0000   1.0000
     1.0000   1.0000   1.0000   1.0000   1.0000   1.0000   1.0000   0.0000
     0.0000   0.0000   0.0000   0.0000

     highest occupied, lowest unoccupied level (ev):    -0.7006    0.4452

!    total energy              =    -369.17580793 Ry
     estimated scf accuracy    <          9.7E-11 Ry

     The total energy is the sum of the following terms:
     one-electron contribution =    -811.16215067 Ry
     hartree contribution      =     411.02963276 Ry
     xc contribution           =     -87.07394822 Ry
     ewald contribution        =     118.03065820 Ry

     convergence has been achieved in  10 iterations

     negative rho (up, down):  3.501E-06 0.000E+00

     Forces acting on atoms (cartesian axes, Ry/au):

     atom    1 type  1   force =     0.00000000    0.00000000   -0.00005445
     atom    2 type  1   force =     0.00000000    0.00000000    0.00005445
     The non-local contrib.  to forces
     atom    1 type  1   force =     0.00000000    0.00000000    0.50923590
     atom    2 type  1   force =     0.00000000   -0.00000000   -0.50926016
     The ionic contribution  to forces
     atom    1 type  1   force =    -0.00000001    0.00000001  -36.39172534
     atom    2 type  1   force =     0.00000001   -0.00000001   36.39172534
     The local contribution  to forces
     atom    1 type  1   force =    -0.00000000   -0.00000000   35.88124298
     atom    2 type  1   force =     0.00000040   -0.00000023  -35.88117800
     The core correction contribution to forces
     atom    1 type  1   force =    -0.00000000    0.00000000    0.00121687
     atom    2 type  1   force =     0.00000003   -0.00000002   -0.00121796
     The Hubbard contrib.    to forces
     atom    1 type  1   force =     0.00000000    0.00000000    0.00000000
     atom    2 type  1   force =     0.00000000    0.00000000    0.00000000
     The SCF correction term to forces
     atom    1 type  1   force =     0.00000000   -0.00000000   -0.00000000
     atom    2 type  1   force =    -0.00000000    0.00000000   -0.00003894

     Total force =     0.000054     Total SCF correction =     0.000039
     SCF correction compared to forces is large: reduce conv_thr to get better values


     Computing stress (Cartesian axis) and pressure


     negative rho (up, down):  3.501E-06 0.000E+00
          total   stress  (Ry/bohr**3)                   (kbar)     P=       -0.01
   0.00000016   0.00000000   0.00000000            0.02        0.00        0.00
   0.00000000   0.00000016   0.00000000            0.00        0.02        0.00
   0.00000000   0.00000000  -0.00000060            0.00        0.00       -0.09

     kinetic stress (kbar)   4883.99     -0.00      0.00
                                0.00   4883.99      0.00
                                0.00      0.00   4909.54

     local   stress (kbar) -64833.96      0.00     -0.00
                                0.00 -64833.96      0.00
                               -0.00      0.00  65588.07

     nonloc. stress (kbar)     43.33      0.00      0.00
                                0.00     43.33      0.00
                                0.00      0.00     62.02

     hartree stress (kbar)  35120.33      0.00     -0.00
                                0.00  35120.33     -0.00
                               -0.00     -0.00 -28000.03

     exc-cor stress (kbar)   2973.46     -0.00      0.00
                               -0.00   2973.46     -0.00
                                0.00     -0.00   2972.54

     corecor stress (kbar)  -4678.56      0.00      0.00
                                0.00  -4678.56     -0.00
                                0.00     -0.00  -4679.10

     ewald   stress (kbar)  26491.44     -0.00      0.00
                               -0.00  26491.44     -0.00
                                0.00     -0.00 -40853.13

     hubbard stress (kbar)      0.00      0.00      0.00
                                0.00      0.00      0.00
                                0.00      0.00      0.00

     DFT-D   stress (kbar)      0.00      0.00      0.00
                                0.00      0.00      0.00
                                0.00      0.00      0.00

     XDM     stress (kbar)      0.00      0.00      0.00
                                0.00      0.00      0.00
                                0.00      0.00      0.00

     dft-nl  stress (kbar)      0.00      0.00      0.00
                                0.00      0.00      0.00
                                0.00      0.00      0.00

     TS-vdW  stress (kbar)      0.00      0.00      0.00
                                0.00      0.00      0.00
                                0.00      0.00      0.00



     BFGS Geometry Optimization
     Energy error            =      0.0E+00
     Gradient error          =      5.4E-05
     Cell gradient error     =      1.6E-07


     number of scf cycles    =   1
     number of bfgs steps    =   0

     enthalpy new            =    -369.1758079271 Ry

     new trust radius        =       0.0000544472 bohr
     new conv_thr            =       0.0000000008 Ry

     new unit-cell volume =   1431.44226 a.u.^3 (   212.11786 Ang^3 )
     density =      0.18805 g/cm^3

CELL_PARAMETERS (alat=  7.63615650)
   1.000003954   0.000000000   0.000000000
  -0.500001977   0.866028828   0.000000000
   0.000000000   0.000000000   3.712062719

ATOMIC_POSITIONS (crystal)
Sb            0.0000000000        0.0000000000        0.5000000000    0   0   0
Sb            0.3333333330        0.6666666670        0.6091519208



     Writing output data file ./tmp/Sb.save/
     NEW-OLD atomic charge density approx. for the potential

     negative rho (up, down):  3.471E-06 0.000E+00
     extrapolated charge   30.00022, renormalised to   30.00000

     total cpu time spent up to now is       35.5 secs

     Self-consistent Calculation

     iteration #  1     ecut=    60.00 Ry     beta= 0.50
     Davidson diagonalization with overlap
     ethr =  1.00E-06,  avg # of iterations =  2.0

     Threshold (ethr) on eigenvalues was too large:
     Diagonalizing with lowered threshold

     Davidson diagonalization with overlap
     ethr =  8.55E-11,  avg # of iterations =  2.0

     negative rho (up, down):  3.476E-06 0.000E+00

     total cpu time spent up to now is       40.5 secs

     total energy              =    -369.17580790 Ry
     estimated scf accuracy    <       0.00000003 Ry

     iteration #  2     ecut=    60.00 Ry     beta= 0.50
     Davidson diagonalization with overlap
     ethr =  8.74E-11,  avg # of iterations =  3.0

     negative rho (up, down):  3.485E-06 0.000E+00

     total cpu time spent up to now is       43.6 secs

     total energy              =    -369.17580793 Ry
     estimated scf accuracy    <       0.00000003 Ry

     iteration #  3     ecut=    60.00 Ry     beta= 0.50
     Davidson diagonalization with overlap
     ethr =  8.74E-11,  avg # of iterations =  2.0

     negative rho (up, down):  3.490E-06 0.000E+00

     total cpu time spent up to now is       46.1 secs

     total energy              =    -369.17580793 Ry
     estimated scf accuracy    <          8.3E-09 Ry

     iteration #  4     ecut=    60.00 Ry     beta= 0.50
     Davidson diagonalization with overlap
     ethr =  2.77E-11,  avg # of iterations =  1.0

     negative rho (up, down):  3.493E-06 0.000E+00

     total cpu time spent up to now is       48.4 secs

     total energy              =    -369.17580793 Ry
     estimated scf accuracy    <          4.3E-09 Ry

     iteration #  5     ecut=    60.00 Ry     beta= 0.50
     Davidson diagonalization with overlap
     ethr =  1.44E-11,  avg # of iterations =  2.0

     negative rho (up, down):  3.494E-06 0.000E+00

     total cpu time spent up to now is       51.0 secs

     total energy              =    -369.17580793 Ry
     estimated scf accuracy    <          1.0E-09 Ry

     iteration #  6     ecut=    60.00 Ry     beta= 0.50
     Davidson diagonalization with overlap
     ethr =  3.44E-12,  avg # of iterations =  2.0

     negative rho (up, down):  3.496E-06 0.000E+00

     total cpu time spent up to now is       53.5 secs

     End of self-consistent calculation

          k = 0.0000 0.0000 0.0000 ( 11241 PWs)   bands (ev):

   -29.3435 -29.3435 -29.2598 -29.2598 -29.2192 -29.1404 -29.1404 -29.1046
   -29.0532 -29.0532 -12.3642  -7.2118  -1.5205  -0.7007  -0.7007   0.9765
     2.1214   2.1214   3.6548   3.6902

     occupation numbers 
     1.0000   1.0000   1.0000   1.0000   1.0000   1.0000   1.0000   1.0000
     1.0000   1.0000   1.0000   1.0000   1.0000   1.0000   1.0000   0.0000
     0.0000   0.0000   0.0000   0.0000

          k =-0.0000 0.0770 0.0000 ( 11257 PWs)   bands (ev):

   -29.3431 -29.3410 -29.2595 -29.2582 -29.2184 -29.1415 -29.1405 -29.1052
   -29.0563 -29.0534 -12.3140  -7.2030  -1.4952  -1.2526  -0.8236   1.3827
     2.0214   2.2393   3.7109   3.7621

     occupation numbers 
     1.0000   1.0000   1.0000   1.0000   1.0000   1.0000   1.0000   1.0000
     1.0000   1.0000   1.0000   1.0000   1.0000   1.0000   1.0000   0.0000
     0.0000   0.0000   0.0000   0.0000

          k =-0.0000 0.1540 0.0000 ( 11295 PWs)   bands (ev):

   -29.3421 -29.3334 -29.2588 -29.2535 -29.2159 -29.1447 -29.1410 -29.1071
   -29.0651 -29.0538 -12.1642  -7.1904  -2.1843  -1.4312  -1.1197   1.2690
     2.4370   2.4990   3.8582   3.9724

     occupation numbers 
     1.0000   1.0000   1.0000   1.0000   1.0000   1.0000   1.0000   1.0000
     1.0000   1.0000   1.0000   1.0000   1.0000   1.0000   1.0000   0.0000
     0.0000   0.0000   0.0000   0.0000

          k =-0.0000 0.2309 0.0000 ( 11284 PWs)   bands (ev):

   -29.3404 -29.3214 -29.2578 -29.2460 -29.2113 -29.1500 -29.1423 -29.1101
   -29.0789 -29.0545 -11.9181  -7.2206  -3.0491  -1.4710  -1.3756   0.8122
     2.7379   2.8276   4.0534   4.2278

     occupation numbers 
     1.0000   1.0000   1.0000   1.0000   1.0000   1.0000   1.0000   1.0000
     1.0000   1.0000   1.0000   1.0000   1.0000   1.0000   1.0000   0.0000
     0.0000   0.0000   0.0000   0.0000

          k =-0.0000 0.3079 0.0000 ( 11252 PWs)   bands (ev):

   -29.3385 -29.3059 -29.2566 -29.2363 -29.2049 -29.1572 -29.1449 -29.1149
   -29.0954 -29.0553 -11.5826  -7.3751  -3.6809  -1.8013  -1.4297   0.4920
     2.6887   2.8670   4.3271   4.5143

     occupation numbers 
     1.0000   1.0000   1.0000   1.0000   1.0000   1.0000   1.0000   1.0000
     1.0000   1.0000   1.0000   1.0000   1.0000   1.0000   1.0000   0.0000
     0.0000   0.0000   0.0000   0.0000

          k =-0.0000 0.3849 0.0000 ( 11232 PWs)   bands (ev):

   -29.3367 -29.2893 -29.2536 -29.2250 -29.1971 -29.1661 -29.1496 -29.1258
   -29.1077 -29.0561 -11.1730  -7.7190  -3.9855  -2.0710  -1.6818   0.4451
     2.2900   2.8960   4.6545   4.8168

     occupation numbers 
     1.0000   1.0000   1.0000   1.0000   1.0000   1.0000   1.0000   1.0000
     1.0000   1.0000   1.0000   1.0000   1.0000   1.0000   1.0000   0.0000
     0.0000   0.0000   0.0000   0.0000

          k =-0.0000 0.4619 0.0000 ( 11222 PWs)   bands (ev):

   -29.3352 -29.2768 -29.2457 -29.2128 -29.1899 -29.1764 -29.1567 -29.1425
   -29.1122 -29.0567 -10.7276  -8.1965  -4.0050  -2.2595  -2.0481   0.6075
     1.9037   2.8780   4.4865   5.3568

     occupation numbers 
     1.0000   1.0000   1.0000   1.0000   1.0000   1.0000   1.0000   1.0000
     1.0000   1.0000   1.0000   1.0000   1.0000   1.0000   1.0000   0.0000
     0.0000   0.0000   0.0000   0.0000

          k =-0.0000 0.5389 0.0000 ( 11222 PWs)   bands (ev):

   -29.3344 -29.2720 -29.2341 -29.2003 -29.1881 -29.1879 -29.1613 -29.1550
   -29.1136 -29.0571 -10.3662  -8.6030  -3.9119  -2.3561  -2.3321   0.8042
     1.6359   2.8579   4.2847   5.9777

     occupation numbers 
     1.0000   1.0000   1.0000   1.0000   1.0000   1.0000   1.0000   1.0000
     1.0000   1.0000   1.0000   1.0000   1.0000   1.0000   1.0000   0.0000
     0.0000   0.0000   0.0000   0.0000

          k = 0.0667 0.1155 0.0000 ( 11283 PWs)   bands (ev):

   -29.3424 -29.3359 -29.2589 -29.2552 -29.2167 -29.1437 -29.1408 -29.1065
   -29.0622 -29.0537 -12.2139  -7.1921  -1.9045  -1.4508  -1.0912   1.7451
     1.7723   2.5903   3.8163   3.9028

     occupation numbers 
     1.0000   1.0000   1.0000   1.0000   1.0000   1.0000   1.0000   1.0000
     1.0000   1.0000   1.0000   1.0000   1.0000   1.0000   1.0000   0.0000
     0.0000   0.0000   0.0000   0.0000

          k = 0.0667 0.1924 0.0000 ( 11279 PWs)   bands (ev):

   -29.3411 -29.3261 -29.2577 -29.2496 -29.2131 -29.1482 -29.1414 -29.1089
   -29.0735 -29.0543 -12.0159  -7.1994  -2.7048  -1.5272  -1.3697   1.3161
     2.2071   2.9580   4.0019   4.1354

     occupation numbers 
     1.0000   1.0000   1.0000   1.0000   1.0000   1.0000   1.0000   1.0000
     1.0000   1.0000   1.0000   1.0000   1.0000   1.0000   1.0000   0.0000
     0.0000   0.0000   0.0000   0.0000

          k = 0.0667 0.2694 0.0000 ( 11255 PWs)   bands (ev):

   -29.3393 -29.3122 -29.2564 -29.2416 -29.2073 -29.1548 -29.1429 -29.1127
   -29.0888 -29.0551 -11.7245  -7.2891  -3.4028  -1.9306  -1.3533   0.9059
     2.5228   2.9680   4.2201   4.3993

     occupation numbers 
     1.0000   1.0000   1.0000   1.0000   1.0000   1.0000   1.0000   1.0000
     1.0000   1.0000   1.0000   1.0000   1.0000   1.0000   1.0000   0.0000
     0.0000   0.0000   0.0000   0.0000

          k = 0.0667 0.3464 0.0000 ( 11225 PWs)   bands (ev):

   -29.3375 -29.2957 -29.2544 -29.2316 -29.1997 -29.1632 -29.1459 -29.1200
   -29.1041 -29.0560 -11.3499  -7.5413  -3.8451  -2.2660  -1.4783   0.6954
     2.6103   2.6597   4.5559   4.7268

     occupation numbers 
     1.0000   1.0000   1.0000   1.0000   1.0000   1.0000   1.0000   1.0000
     1.0000   1.0000   1.0000   1.0000   1.0000   1.0000   1.0000   0.0000
     0.0000   0.0000   0.0000   0.0000

          k = 0.0667 0.4234 0.0000 ( 11214 PWs)   bands (ev):

   -29.3358 -29.2801 -29.2496 -29.2204 -29.1915 -29.1732 -29.1513 -29.1353
   -29.1117 -29.0568 -10.9152  -7.9673  -3.9914  -2.4964  -1.7844   0.7465
     2.1733   2.6942   4.6889   5.1258

     occupation numbers 
     1.0000   1.0000   1.0000   1.0000   1.0000   1.0000   1.0000   1.0000
     1.0000   1.0000   1.0000   1.0000   1.0000   1.0000   1.0000   0.0000
     0.0000   0.0000   0.0000   0.0000

          k = 0.0667 0.5004 0.0000 ( 11227 PWs)   bands (ev):

   -29.3347 -29.2714 -29.2386 -29.2085 -29.1877 -29.1826 -29.1586 -29.1502
   -29.1143 -29.0574 -10.4857  -8.4420  -3.9498  -2.5923  -2.1522   0.9685
     1.7774   2.7102   4.4413   5.7289

     occupation numbers 
     1.0000   1.0000   1.0000   1.0000   1.0000   1.0000   1.0000   1.0000
     1.0000   1.0000   1.0000   1.0000   1.0000   1.0000   1.0000   0.0000
     0.0000   0.0000   0.0000   0.0000

          k = 0.0667 0.5773 0.0000 ( 11218 PWs)   bands (ev):

   -29.3343 -29.2693 -29.2306 -29.1977 -29.1968 -29.1846 -29.1589 -29.1587
   -29.1150 -29.0576 -10.2668  -8.6852  -3.9018  -2.5657  -2.3684   1.1581
     1.5436   2.7190   4.3164   6.3210

     occupation numbers 
     1.0000   1.0000   1.0000   1.0000   1.0000   1.0000   1.0000   1.0000
     1.0000   1.0000   1.0000   1.0000   1.0000   1.0000   1.0000   0.0000
     0.0000   0.0000   0.0000   0.0000

          k = 0.1333 0.2309 0.0000 ( 11239 PWs)   bands (ev):

   -29.3397 -29.3142 -29.2556 -29.2442 -29.2079 -29.1543 -29.1418 -29.1121
   -29.0864 -29.0552 -11.7721  -7.2634  -3.2224  -2.1194  -1.3362   1.4319
     2.0727   3.1263   4.2376   4.3377

     occupation numbers 
     1.0000   1.0000   1.0000   1.0000   1.0000   1.0000   1.0000   1.0000
     1.0000   1.0000   1.0000   1.0000   1.0000   1.0000   1.0000   0.0000
     0.0000   0.0000   0.0000   0.0000

          k = 0.1333 0.3079 0.0000 ( 11233 PWs)   bands (ev):

   -29.3380 -29.2988 -29.2532 -29.2372 -29.2005 -29.1626 -29.1430 -29.1177
   -29.1016 -29.0562 -11.4398  -7.4497  -3.6259  -2.6353  -1.3799   1.2521
     2.1602   3.0345   4.4997   4.6600

     occupation numbers 
     1.0000   1.0000   1.0000   1.0000   1.0000   1.0000   1.0000   1.0000
     1.0000   1.0000   1.0000   1.0000   1.0000   1.0000   1.0000   0.0000
     0.0000   0.0000   0.0000   0.0000

          k = 0.1333 0.3849 0.0000 ( 11214 PWs)   bands (ev):

   -29.3364 -29.2819 -29.2501 -29.2282 -29.1917 -29.1727 -29.1456 -29.1302
   -29.1121 -29.0573 -11.0330  -7.8007  -3.8506  -2.9626  -1.5845   1.1427
     2.1362   2.8064   4.8215   5.0557

     occupation numbers 
     1.0000   1.0000   1.0000   1.0000   1.0000   1.0000   1.0000   1.0000
     1.0000   1.0000   1.0000   1.0000   1.0000   1.0000   1.0000   0.0000
     0.0000   0.0000   0.0000   0.0000

          k = 0.1333 0.4619 0.0000 ( 11215 PWs)   bands (ev):

   -29.3351 -29.2686 -29.2426 -29.2177 -29.1862 -29.1815 -29.1521 -29.1460
   -29.1164 -29.0582 -10.5870  -8.2656  -3.9376  -3.0528  -1.9353   1.2003
     2.0148   2.6189   4.7710   5.5596

     occupation numbers 
     1.0000   1.0000   1.0000   1.0000   1.0000   1.0000   1.0000   1.0000
     1.0000   1.0000   1.0000   1.0000   1.0000   1.0000   1.0000   0.0000
     0.0000   0.0000   0.0000   0.0000

          k = 0.1333 0.5389 0.0000 ( 11215 PWs)   bands (ev):

   -29.3343 -29.2636 -29.2301 -29.2075 -29.1973 -29.1793 -29.1613 -29.1529
   -29.1181 -29.0587 -10.2157  -8.6685  -3.9723  -2.9392  -2.2872   1.3190
     1.8861   2.5358   4.5607   6.2126

     occupation numbers 
     1.0000   1.0000   1.0000   1.0000   1.0000   1.0000   1.0000   1.0000
     1.0000   1.0000   1.0000   1.0000   1.0000   1.0000   1.0000   0.0000
     0.0000   0.0000   0.0000   0.0000

          k = 0.2000 0.3464 0.0000 ( 11221 PWs)   bands (ev):

   -29.3366 -29.2825 -29.2493 -29.2319 -29.1916 -29.1727 -29.1433 -29.1284
   -29.1125 -29.0576 -11.0731  -7.7394  -3.6776  -3.2704  -1.5140   1.5228
     1.7271   3.1756   4.8233   5.0270

     occupation numbers 
     1.0000   1.0000   1.0000   1.0000   1.0000   1.0000   1.0000   1.0000
     1.0000   1.0000   1.0000   1.0000   1.0000   1.0000   1.0000   0.0000
     0.0000   0.0000   0.0000   0.0000

          k = 0.2000 0.4234 0.0000 ( 11219 PWs)   bands (ev):

   -29.3353 -29.2657 -29.2447 -29.2242 -29.1848 -29.1820 -29.1463 -29.1439
   -29.1187 -29.0589 -10.6437  -8.1495  -3.8221  -3.4671  -1.7845   1.3124
     1.8272   3.1296   5.1381   5.5019

     occupation numbers 
     1.0000   1.0000   1.0000   1.0000   1.0000   1.0000   1.0000   1.0000
     1.0000   1.0000   1.0000   1.0000   1.0000   1.0000   1.0000   0.0000
     0.0000   0.0000   0.0000   0.0000

          k = 0.2000 0.5004 0.0000 ( 11215 PWs)   bands (ev):

   -29.3344 -29.2555 -29.2343 -29.2145 -29.1978 -29.1753 -29.1625 -29.1466
   -29.1222 -29.0598 -10.2045  -8.6007  -4.0950  -3.2166  -2.1434   1.0762
     2.1575   2.8825   5.0778   6.0775

     occupation numbers 
     1.0000   1.0000   1.0000   1.0000   1.0000   1.0000   1.0000   1.0000
     1.0000   1.0000   1.0000   1.0000   1.0000   1.0000   1.0000   0.0000
     0.0000   0.0000   0.0000   0.0000

          k = 0.2000 0.5773 0.0000 ( 11230 PWs)   bands (ev):

   -29.3341 -29.2534 -29.2231 -29.2111 -29.2053 -29.1773 -29.1664 -29.1482
   -29.1234 -29.0601  -9.9607  -8.8532  -4.1895  -3.0198  -2.3761   0.9973
     2.5126   2.5514   4.9914   6.3961

     occupation numbers 
     1.0000   1.0000   1.0000   1.0000   1.0000   1.0000   1.0000   1.0000
     1.0000   1.0000   1.0000   1.0000   1.0000   1.0000   1.0000   0.0000
     0.0000   0.0000   0.0000   0.0000

          k = 0.2667 0.4619 0.0000 ( 11231 PWs)   bands (ev):

   -29.3345 -29.2492 -29.2397 -29.2167 -29.1979 -29.1738 -29.1629 -29.1435
   -29.1245 -29.0603 -10.2051  -8.5645  -4.1596  -3.3082  -2.0719   0.9601
     2.1401   3.2062   5.7228   5.9611

     occupation numbers 
     1.0000   1.0000   1.0000   1.0000   1.0000   1.0000   1.0000   1.0000
     1.0000   1.0000   1.0000   1.0000   1.0000   1.0000   1.0000   0.0000
     0.0000   0.0000   0.0000   0.0000

          k = 0.2667 0.5389 0.0000 ( 11227 PWs)   bands (ev):

   -29.3340 -29.2415 -29.2288 -29.2127 -29.2058 -29.1789 -29.1682 -29.1423
   -29.1289 -29.0611  -9.7900  -8.9696  -4.3902  -2.9927  -2.3930   0.7263
     2.5308   2.9933   5.8227   6.0544

     occupation numbers 
     1.0000   1.0000   1.0000   1.0000   1.0000   1.0000   1.0000   1.0000
     1.0000   1.0000   1.0000   1.0000   1.0000   1.0000   1.0000   0.0000
     0.0000   0.0000   0.0000   0.0000

          k = 0.3333 0.5773 0.0000 ( 11256 PWs)   bands (ev):

   -29.3339 -29.2284 -29.2264 -29.2264 -29.1933 -29.1933 -29.1667 -29.1360
   -29.1360 -29.0616  -9.3704  -9.3704  -4.5114  -2.6846  -2.6846   0.5837
     2.8440   2.8440   5.8866   6.7422

     occupation numbers 
     1.0000   1.0000   1.0000   1.0000   1.0000   1.0000   1.0000   1.0000
     1.0000   1.0000   1.0000   1.0000   1.0000   1.0000   1.0000   0.0000
     0.0000   0.0000   0.0000   0.0000

     highest occupied, lowest unoccupied level (ev):    -0.7007    0.4451

!    total energy              =    -369.17580793 Ry
     estimated scf accuracy    <          2.3E-10 Ry

     The total energy is the sum of the following terms:
     one-electron contribution =    -811.15437699 Ry
     hartree contribution      =     411.02587939 Ry
     xc contribution           =     -87.07394868 Ry
     ewald contribution        =     118.02663835 Ry

     convergence has been achieved in   6 iterations

     negative rho (up, down):  3.496E-06 0.000E+00

     Forces acting on atoms (cartesian axes, Ry/au):

     atom    1 type  1   force =     0.00000000   -0.00000000   -0.00005591
     atom    2 type  1   force =     0.00000000    0.00000000    0.00005591
     The non-local contrib.  to forces
     atom    1 type  1   force =    -0.00000000    0.00000000    0.50921651
     atom    2 type  1   force =    -0.00000000    0.00000000   -0.50921547
     The ionic contribution  to forces
     atom    1 type  1   force =    -0.00000001    0.00000001  -36.39148158
     atom    2 type  1   force =     0.00000001   -0.00000001   36.39148158
     The local contribution  to forces
     atom    1 type  1   force =     0.00000000   -0.00000000   35.88104269
     atom    2 type  1   force =     0.00000040   -0.00000023  -35.88104588
     The core correction contribution to forces
     atom    1 type  1   force =    -0.00000000    0.00000000    0.00121643
     atom    2 type  1   force =     0.00000003   -0.00000002   -0.00121965
     The Hubbard contrib.    to forces
     atom    1 type  1   force =     0.00000000    0.00000000    0.00000000
     atom    2 type  1   force =     0.00000000    0.00000000    0.00000000
     The SCF correction term to forces
     atom    1 type  1   force =    -0.00000000    0.00000000   -0.00000000
     atom    2 type  1   force =    -0.00000000    0.00000000    0.00005658

     Total force =     0.000056     Total SCF correction =     0.000057
     SCF correction compared to forces is large: reduce conv_thr to get better values


     Computing stress (Cartesian axis) and pressure


     negative rho (up, down):  3.496E-06 0.000E+00
          total   stress  (Ry/bohr**3)                   (kbar)     P=        0.03
   0.00000046   0.00000000  -0.00000000            0.07        0.00       -0.00
   0.00000000   0.00000046   0.00000000            0.00        0.07        0.00
   0.00000000   0.00000000  -0.00000029            0.00        0.00       -0.04

     kinetic stress (kbar)   4883.95     -0.00      0.00
                               -0.00   4883.95      0.00
                                0.00      0.00   4909.50

     local   stress (kbar) -64832.49      0.00     -0.00
                                0.00 -64832.49      0.00
                               -0.00      0.00  65586.45

     nonloc. stress (kbar)     43.37      0.00      0.00
                               -0.00     43.37      0.00
                                0.00      0.00     62.06

     hartree stress (kbar)  35119.61     -0.00     -0.00
                               -0.00  35119.61     -0.00
                               -0.00     -0.00 -27999.30

     exc-cor stress (kbar)   2973.43     -0.00      0.00
                               -0.00   2973.43     -0.00
                                0.00     -0.00   2972.51

     corecor stress (kbar)  -4678.52      0.00      0.00
                                0.00  -4678.52     -0.00
                                0.00     -0.00  -4679.06

     ewald   stress (kbar)  26490.72     -0.00      0.00
                               -0.00  26490.72     -0.00
                                0.00     -0.00 -40852.20

     hubbard stress (kbar)      0.00      0.00      0.00
                                0.00      0.00      0.00
                                0.00      0.00      0.00

     DFT-D   stress (kbar)      0.00      0.00      0.00
                                0.00      0.00      0.00
                                0.00      0.00      0.00

     XDM     stress (kbar)      0.00      0.00      0.00
                                0.00      0.00      0.00
                                0.00      0.00      0.00

     dft-nl  stress (kbar)      0.00      0.00      0.00
                                0.00      0.00      0.00
                                0.00      0.00      0.00

     TS-vdW  stress (kbar)      0.00      0.00      0.00
                                0.00      0.00      0.00
                                0.00      0.00      0.00


     Energy error            =      3.5E-09
     Gradient error          =      5.6E-05
     Cell gradient error     =      4.6E-07


     number of scf cycles    =   2
     number of bfgs steps    =   1

     enthalpy old            =    -369.1758079271 Ry
     enthalpy new            =    -369.1758079307 Ry

     CASE: enthalpy_new < enthalpy_old


     WARNING: bfgs curvature condition failed, Theta= 0.463
     small trust_radius: resetting bfgs history

     new trust radius        =       0.0000863109 bohr
     new conv_thr            =            8.0E-12 Ry

     new unit-cell volume =   1431.47491 a.u.^3 (   212.12270 Ang^3 )
     density =      0.18805 g/cm^3

CELL_PARAMETERS (alat=  7.63615650)
   1.000015360  -0.000000000   0.000000000
  -0.500007680   0.866038706   0.000000000
   0.000000000   0.000000000   3.712062719

ATOMIC_POSITIONS (crystal)
Sb            0.0000000000        0.0000000000        0.5000000000    0   0   0
Sb            0.3333333330        0.6666666670        0.6091538931



     Writing output data file ./tmp/Sb.save/
     NEW-OLD atomic charge density approx. for the potential

     negative rho (up, down):  3.356E-06 0.000E+00
     extrapolated charge   30.00064, renormalised to   30.00000

     total cpu time spent up to now is       59.6 secs

     Self-consistent Calculation

     iteration #  1     ecut=    60.00 Ry     beta= 0.50
     Davidson diagonalization with overlap
     ethr =  1.00E-06,  avg # of iterations =  2.0

     Threshold (ethr) on eigenvalues was too large:
     Diagonalizing with lowered threshold

     Davidson diagonalization with overlap
     ethr =  7.57E-10,  avg # of iterations =  1.1

     negative rho (up, down):  3.405E-06 0.000E+00

     total cpu time spent up to now is       64.4 secs

     total energy              =    -369.17580765 Ry
     estimated scf accuracy    <       0.00000023 Ry

     iteration #  2     ecut=    60.00 Ry     beta= 0.50
     Davidson diagonalization with overlap
     ethr =  7.60E-10,  avg # of iterations =  3.0

     negative rho (up, down):  3.445E-06 0.000E+00

     total cpu time spent up to now is       67.6 secs

     total energy              =    -369.17580794 Ry
     estimated scf accuracy    <       0.00000023 Ry

     iteration #  3     ecut=    60.00 Ry     beta= 0.50
     Davidson diagonalization with overlap
     ethr =  7.60E-10,  avg # of iterations =  2.0

     negative rho (up, down):  3.463E-06 0.000E+00

     total cpu time spent up to now is       70.2 secs

     total energy              =    -369.17580795 Ry
     estimated scf accuracy    <       0.00000005 Ry

     iteration #  4     ecut=    60.00 Ry     beta= 0.50
     Davidson diagonalization with overlap
     ethr =  1.82E-10,  avg # of iterations =  1.0

     negative rho (up, down):  3.475E-06 0.000E+00

     total cpu time spent up to now is       72.6 secs

     total energy              =    -369.17580794 Ry
     estimated scf accuracy    <       0.00000003 Ry

     iteration #  5     ecut=    60.00 Ry     beta= 0.50
     Davidson diagonalization with overlap
     ethr =  1.13E-10,  avg # of iterations =  1.7

     negative rho (up, down):  3.480E-06 0.000E+00

     total cpu time spent up to now is       75.1 secs

     total energy              =    -369.17580794 Ry
     estimated scf accuracy    <       0.00000001 Ry

     iteration #  6     ecut=    60.00 Ry     beta= 0.50
     Davidson diagonalization with overlap
     ethr =  3.51E-11,  avg # of iterations =  1.0

     negative rho (up, down):  3.485E-06 0.000E+00

     total cpu time spent up to now is       77.5 secs

     total energy              =    -369.17580794 Ry
     estimated scf accuracy    <          7.6E-09 Ry

     iteration #  7     ecut=    60.00 Ry     beta= 0.50
     Davidson diagonalization with overlap
     ethr =  2.52E-11,  avg # of iterations =  1.0

     negative rho (up, down):  3.490E-06 0.000E+00

     total cpu time spent up to now is       79.9 secs

     total energy              =    -369.17580794 Ry
     estimated scf accuracy    <          3.6E-09 Ry

     iteration #  8     ecut=    60.00 Ry     beta= 0.50
     Davidson diagonalization with overlap
     ethr =  1.18E-11,  avg # of iterations =  2.0

     negative rho (up, down):  3.490E-06 0.000E+00

     total cpu time spent up to now is       82.6 secs

     total energy              =    -369.17580794 Ry
     estimated scf accuracy    <          3.5E-11 Ry

     iteration #  9     ecut=    60.00 Ry     beta= 0.50
     Davidson diagonalization with overlap
     ethr =  1.17E-13,  avg # of iterations =  2.1

     negative rho (up, down):  3.490E-06 0.000E+00

     total cpu time spent up to now is       85.8 secs

     total energy              =    -369.17580794 Ry
     estimated scf accuracy    <          3.8E-11 Ry

     iteration # 10     ecut=    60.00 Ry     beta= 0.50
     Davidson diagonalization with overlap
     ethr =  1.17E-13,  avg # of iterations =  2.0

     negative rho (up, down):  3.491E-06 0.000E+00

     total cpu time spent up to now is       88.5 secs

     total energy              =    -369.17580794 Ry
     estimated scf accuracy    <          9.4E-12 Ry

     iteration # 11     ecut=    60.00 Ry     beta= 0.50
     Davidson diagonalization with overlap
     ethr =  1.00E-13,  avg # of iterations =  2.0

     negative rho (up, down):  3.491E-06 0.000E+00

     total cpu time spent up to now is       91.1 secs

     End of self-consistent calculation

          k = 0.0000 0.0000 0.0000 ( 11241 PWs)   bands (ev):

   -29.3434 -29.3434 -29.2597 -29.2597 -29.2191 -29.1403 -29.1403 -29.1046
   -29.0532 -29.0532 -12.3640  -7.2118  -1.5206  -0.7007  -0.7007   0.9764
     2.1213   2.1213   3.6546   3.6901

     occupation numbers 
     1.0000   1.0000   1.0000   1.0000   1.0000   1.0000   1.0000   1.0000
     1.0000   1.0000   1.0000   1.0000   1.0000   1.0000   1.0000   0.0000
     0.0000   0.0000   0.0000   0.0000

          k = 0.0000 0.0770 0.0000 ( 11257 PWs)   bands (ev):

   -29.3431 -29.3409 -29.2594 -29.2581 -29.2183 -29.1414 -29.1405 -29.1052
   -29.0562 -29.0533 -12.3137  -7.2030  -1.4952  -1.2526  -0.8235   1.3826
     2.0213   2.2392   3.7108   3.7621

     occupation numbers 
     1.0000   1.0000   1.0000   1.0000   1.0000   1.0000   1.0000   1.0000
     1.0000   1.0000   1.0000   1.0000   1.0000   1.0000   1.0000   0.0000
     0.0000   0.0000   0.0000   0.0000

          k = 0.0000 0.1540 0.0000 ( 11295 PWs)   bands (ev):

   -29.3420 -29.3334 -29.2587 -29.2534 -29.2158 -29.1447 -29.1410 -29.1070
   -29.0651 -29.0538 -12.1639  -7.1904  -2.1842  -1.4313  -1.1197   1.2689
     2.4368   2.4989   3.8581   3.9724

     occupation numbers 
     1.0000   1.0000   1.0000   1.0000   1.0000   1.0000   1.0000   1.0000
     1.0000   1.0000   1.0000   1.0000   1.0000   1.0000   1.0000   0.0000
     0.0000   0.0000   0.0000   0.0000

          k = 0.0000 0.2309 0.0000 ( 11284 PWs)   bands (ev):

   -29.3404 -29.3213 -29.2578 -29.2459 -29.2113 -29.1499 -29.1423 -29.1101
   -29.0788 -29.0544 -11.9178  -7.2206  -3.0489  -1.4709  -1.3757   0.8122
     2.7377   2.8275   4.0533   4.2277

     occupation numbers 
     1.0000   1.0000   1.0000   1.0000   1.0000   1.0000   1.0000   1.0000
     1.0000   1.0000   1.0000   1.0000   1.0000   1.0000   1.0000   0.0000
     0.0000   0.0000   0.0000   0.0000

          k = 0.0000 0.3079 0.0000 ( 11252 PWs)   bands (ev):

   -29.3384 -29.3059 -29.2565 -29.2363 -29.2048 -29.1571 -29.1449 -29.1149
   -29.0953 -29.0552 -11.5824  -7.3752  -3.6808  -1.8012  -1.4297   0.4920
     2.6886   2.8669   4.3270   4.5142

     occupation numbers 
     1.0000   1.0000   1.0000   1.0000   1.0000   1.0000   1.0000   1.0000
     1.0000   1.0000   1.0000   1.0000   1.0000   1.0000   1.0000   0.0000
     0.0000   0.0000   0.0000   0.0000

          k = 0.0000 0.3849 0.0000 ( 11232 PWs)   bands (ev):

   -29.3366 -29.2893 -29.2536 -29.2250 -29.1971 -29.1660 -29.1496 -29.1258
   -29.1077 -29.0560 -11.1728  -7.7191  -3.9854  -2.0710  -1.6818   0.4451
     2.2900   2.8959   4.6544   4.8167

     occupation numbers 
     1.0000   1.0000   1.0000   1.0000   1.0000   1.0000   1.0000   1.0000
     1.0000   1.0000   1.0000   1.0000   1.0000   1.0000   1.0000   0.0000
     0.0000   0.0000   0.0000   0.0000

          k = 0.0000 0.4619 0.0000 ( 11222 PWs)   bands (ev):

   -29.3351 -29.2767 -29.2456 -29.2127 -29.1899 -29.1763 -29.1566 -29.1425
   -29.1121 -29.0567 -10.7275  -8.1965  -4.0049  -2.2594  -2.0481   0.6075
     1.9037   2.8779   4.4864   5.3566

     occupation numbers 
     1.0000   1.0000   1.0000   1.0000   1.0000   1.0000   1.0000   1.0000
     1.0000   1.0000   1.0000   1.0000   1.0000   1.0000   1.0000   0.0000
     0.0000   0.0000   0.0000   0.0000

          k = 0.0000 0.5389 0.0000 ( 11222 PWs)   bands (ev):

   -29.3343 -29.2719 -29.2340 -29.2002 -29.1880 -29.1878 -29.1613 -29.1549
   -29.1136 -29.0570 -10.3661  -8.6029  -3.9118  -2.3560  -2.3320   0.8042
     1.6358   2.8577   4.2847   5.9776

     occupation numbers 
     1.0000   1.0000   1.0000   1.0000   1.0000   1.0000   1.0000   1.0000
     1.0000   1.0000   1.0000   1.0000   1.0000   1.0000   1.0000   0.0000
     0.0000   0.0000   0.0000   0.0000

          k = 0.0667 0.1155 0.0000 ( 11283 PWs)   bands (ev):

   -29.3423 -29.3358 -29.2588 -29.2551 -29.2167 -29.1437 -29.1407 -29.1064
   -29.0621 -29.0537 -12.2137  -7.1921  -1.9045  -1.4509  -1.0912   1.7450
     1.7722   2.5902   3.8162   3.9027

     occupation numbers 
     1.0000   1.0000   1.0000   1.0000   1.0000   1.0000   1.0000   1.0000
     1.0000   1.0000   1.0000   1.0000   1.0000   1.0000   1.0000   0.0000
     0.0000   0.0000   0.0000   0.0000

          k = 0.0667 0.1924 0.0000 ( 11279 PWs)   bands (ev):

   -29.3410 -29.3260 -29.2576 -29.2495 -29.2130 -29.1482 -29.1413 -29.1089
   -29.0734 -29.0543 -12.0156  -7.1994  -2.7047  -1.5271  -1.3697   1.3161
     2.2070   2.9578   4.0018   4.1353

     occupation numbers 
     1.0000   1.0000   1.0000   1.0000   1.0000   1.0000   1.0000   1.0000
     1.0000   1.0000   1.0000   1.0000   1.0000   1.0000   1.0000   0.0000
     0.0000   0.0000   0.0000   0.0000

          k = 0.0667 0.2694 0.0000 ( 11255 PWs)   bands (ev):

   -29.3393 -29.3121 -29.2563 -29.2415 -29.2072 -29.1547 -29.1428 -29.1127
   -29.0888 -29.0551 -11.7242  -7.2891  -3.4027  -1.9306  -1.3533   0.9058
     2.5226   2.9679   4.2200   4.3992

     occupation numbers 
     1.0000   1.0000   1.0000   1.0000   1.0000   1.0000   1.0000   1.0000
     1.0000   1.0000   1.0000   1.0000   1.0000   1.0000   1.0000   0.0000
     0.0000   0.0000   0.0000   0.0000

          k = 0.0667 0.3464 0.0000 ( 11225 PWs)   bands (ev):

   -29.3374 -29.2956 -29.2544 -29.2316 -29.1996 -29.1631 -29.1459 -29.1199
   -29.1041 -29.0560 -11.3497  -7.5413  -3.8449  -2.2659  -1.4784   0.6954
     2.6102   2.6596   4.5558   4.7267

     occupation numbers 
     1.0000   1.0000   1.0000   1.0000   1.0000   1.0000   1.0000   1.0000
     1.0000   1.0000   1.0000   1.0000   1.0000   1.0000   1.0000   0.0000
     0.0000   0.0000   0.0000   0.0000

          k = 0.0667 0.4234 0.0000 ( 11214 PWs)   bands (ev):

   -29.3357 -29.2800 -29.2495 -29.2203 -29.1915 -29.1731 -29.1512 -29.1352
   -29.1116 -29.0568 -10.9150  -7.9673  -3.9913  -2.4964  -1.7844   0.7465
     2.1732   2.6941   4.6888   5.1256

     occupation numbers 
     1.0000   1.0000   1.0000   1.0000   1.0000   1.0000   1.0000   1.0000
     1.0000   1.0000   1.0000   1.0000   1.0000   1.0000   1.0000   0.0000
     0.0000   0.0000   0.0000   0.0000

          k = 0.0667 0.5004 0.0000 ( 11227 PWs)   bands (ev):

   -29.3346 -29.2713 -29.2386 -29.2085 -29.1876 -29.1825 -29.1585 -29.1502
   -29.1142 -29.0573 -10.4855  -8.4419  -3.9497  -2.5922  -2.1522   0.9685
     1.7773   2.7101   4.4412   5.7288

     occupation numbers 
     1.0000   1.0000   1.0000   1.0000   1.0000   1.0000   1.0000   1.0000
     1.0000   1.0000   1.0000   1.0000   1.0000   1.0000   1.0000   0.0000
     0.0000   0.0000   0.0000   0.0000

          k = 0.0667 0.5773 0.0000 ( 11218 PWs)   bands (ev):

   -29.3342 -29.2692 -29.2305 -29.1976 -29.1968 -29.1845 -29.1588 -29.1586
   -29.1149 -29.0575 -10.2667  -8.6852  -3.9018  -2.5656  -2.3684   1.1580
     1.5435   2.7188   4.3164   6.3208

     occupation numbers 
     1.0000   1.0000   1.0000   1.0000   1.0000   1.0000   1.0000   1.0000
     1.0000   1.0000   1.0000   1.0000   1.0000   1.0000   1.0000   0.0000
     0.0000   0.0000   0.0000   0.0000

          k = 0.1333 0.2309 0.0000 ( 11239 PWs)   bands (ev):

   -29.3396 -29.3142 -29.2555 -29.2441 -29.2079 -29.1542 -29.1418 -29.1121
   -29.0864 -29.0551 -11.7719  -7.2635  -3.2223  -2.1193  -1.3362   1.4319
     2.0726   3.1262   4.2374   4.3376

     occupation numbers 
     1.0000   1.0000   1.0000   1.0000   1.0000   1.0000   1.0000   1.0000
     1.0000   1.0000   1.0000   1.0000   1.0000   1.0000   1.0000   0.0000
     0.0000   0.0000   0.0000   0.0000

          k = 0.1333 0.3079 0.0000 ( 11233 PWs)   bands (ev):

   -29.3379 -29.2988 -29.2532 -29.2371 -29.2004 -29.1625 -29.1429 -29.1176
   -29.1016 -29.0562 -11.4395  -7.4497  -3.6258  -2.6352  -1.3800   1.2521
     2.1601   3.0344   4.4996   4.6599

     occupation numbers 
     1.0000   1.0000   1.0000   1.0000   1.0000   1.0000   1.0000   1.0000
     1.0000   1.0000   1.0000   1.0000   1.0000   1.0000   1.0000   0.0000
     0.0000   0.0000   0.0000   0.0000

          k = 0.1333 0.3849 0.0000 ( 11214 PWs)   bands (ev):

   -29.3363 -29.2818 -29.2500 -29.2281 -29.1916 -29.1726 -29.1456 -29.1302
   -29.1121 -29.0573 -11.0328  -7.8007  -3.8504  -2.9625  -1.5845   1.1426
     2.1361   2.8063   4.8214   5.0555

     occupation numbers 
     1.0000   1.0000   1.0000   1.0000   1.0000   1.0000   1.0000   1.0000
     1.0000   1.0000   1.0000   1.0000   1.0000   1.0000   1.0000   0.0000
     0.0000   0.0000   0.0000   0.0000

          k = 0.1333 0.4619 0.0000 ( 11215 PWs)   bands (ev):

   -29.3350 -29.2685 -29.2425 -29.2177 -29.1861 -29.1814 -29.1520 -29.1459
   -29.1164 -29.0581 -10.5868  -8.2656  -3.9375  -3.0527  -1.9353   1.2002
     2.0147   2.6188   4.7710   5.5595

     occupation numbers 
     1.0000   1.0000   1.0000   1.0000   1.0000   1.0000   1.0000   1.0000
     1.0000   1.0000   1.0000   1.0000   1.0000   1.0000   1.0000   0.0000
     0.0000   0.0000   0.0000   0.0000

          k = 0.1333 0.5389 0.0000 ( 11215 PWs)   bands (ev):

   -29.3343 -29.2635 -29.2300 -29.2074 -29.1973 -29.1792 -29.1613 -29.1529
   -29.1181 -29.0586 -10.2156  -8.6684  -3.9722  -2.9391  -2.2872   1.3189
     1.8860   2.5356   4.5607   6.2124

     occupation numbers 
     1.0000   1.0000   1.0000   1.0000   1.0000   1.0000   1.0000   1.0000
     1.0000   1.0000   1.0000   1.0000   1.0000   1.0000   1.0000   0.0000
     0.0000   0.0000   0.0000   0.0000

          k = 0.2000 0.3464 0.0000 ( 11221 PWs)   bands (ev):

   -29.3365 -29.2824 -29.2493 -29.2318 -29.1916 -29.1726 -29.1433 -29.1283
   -29.1125 -29.0575 -11.0729  -7.7394  -3.6775  -3.2703  -1.5141   1.5227
     1.7270   3.1754   4.8231   5.0269

     occupation numbers 
     1.0000   1.0000   1.0000   1.0000   1.0000   1.0000   1.0000   1.0000
     1.0000   1.0000   1.0000   1.0000   1.0000   1.0000   1.0000   0.0000
     0.0000   0.0000   0.0000   0.0000

          k = 0.2000 0.4234 0.0000 ( 11219 PWs)   bands (ev):

   -29.3352 -29.2656 -29.2446 -29.2241 -29.1848 -29.1819 -29.1462 -29.1438
   -29.1186 -29.0588 -10.6435  -8.1495  -3.8219  -3.4670  -1.7845   1.3124
     1.8271   3.1295   5.1380   5.5016

     occupation numbers 
     1.0000   1.0000   1.0000   1.0000   1.0000   1.0000   1.0000   1.0000
     1.0000   1.0000   1.0000   1.0000   1.0000   1.0000   1.0000   0.0000
     0.0000   0.0000   0.0000   0.0000

          k = 0.2000 0.5004 0.0000 ( 11215 PWs)   bands (ev):

   -29.3344 -29.2554 -29.2342 -29.2145 -29.1977 -29.1752 -29.1625 -29.1466
   -29.1221 -29.0597 -10.2043  -8.6006  -4.0948  -3.2166  -2.1434   1.0761
     2.1574   2.8824   5.0778   6.0773

     occupation numbers 
     1.0000   1.0000   1.0000   1.0000   1.0000   1.0000   1.0000   1.0000
     1.0000   1.0000   1.0000   1.0000   1.0000   1.0000   1.0000   0.0000
     0.0000   0.0000   0.0000   0.0000

          k = 0.2000 0.5773 0.0000 ( 11230 PWs)   bands (ev):

   -29.3340 -29.2533 -29.2231 -29.2111 -29.2052 -29.1772 -29.1663 -29.1482
   -29.1234 -29.0601  -9.9606  -8.8531  -4.1894  -3.0198  -2.3761   0.9972
     2.5124   2.5513   4.9914   6.3960

     occupation numbers 
     1.0000   1.0000   1.0000   1.0000   1.0000   1.0000   1.0000   1.0000
     1.0000   1.0000   1.0000   1.0000   1.0000   1.0000   1.0000   0.0000
     0.0000   0.0000   0.0000   0.0000

          k = 0.2667 0.4619 0.0000 ( 11231 PWs)   bands (ev):

   -29.3344 -29.2492 -29.2397 -29.2166 -29.1979 -29.1737 -29.1628 -29.1434
   -29.1245 -29.0602 -10.2050  -8.5644  -4.1594  -3.3081  -2.0719   0.9600
     2.1400   3.2060   5.7227   5.9607

     occupation numbers 
     1.0000   1.0000   1.0000   1.0000   1.0000   1.0000   1.0000   1.0000
     1.0000   1.0000   1.0000   1.0000   1.0000   1.0000   1.0000   0.0000
     0.0000   0.0000   0.0000   0.0000

          k = 0.2667 0.5389 0.0000 ( 11227 PWs)   bands (ev):

   -29.3339 -29.2414 -29.2287 -29.2127 -29.2057 -29.1788 -29.1681 -29.1422
   -29.1288 -29.0610  -9.7899  -8.9696  -4.3900  -2.9927  -2.3930   0.7263
     2.5307   2.9932   5.8226   6.0543

     occupation numbers 
     1.0000   1.0000   1.0000   1.0000   1.0000   1.0000   1.0000   1.0000
     1.0000   1.0000   1.0000   1.0000   1.0000   1.0000   1.0000   0.0000
     0.0000   0.0000   0.0000   0.0000

          k = 0.3333 0.5773 0.0000 ( 11256 PWs)   bands (ev):

   -29.3338 -29.2284 -29.2263 -29.2263 -29.1932 -29.1932 -29.1667 -29.1359
   -29.1359 -29.0615  -9.3703  -9.3703  -4.5112  -2.6845  -2.6845   0.5837
     2.8439   2.8439   5.8865   6.7420

     occupation numbers 
     1.0000   1.0000   1.0000   1.0000   1.0000   1.0000   1.0000   1.0000
     1.0000   1.0000   1.0000   1.0000   1.0000   1.0000   1.0000   0.0000
     0.0000   0.0000   0.0000   0.0000

     highest occupied, lowest unoccupied level (ev):    -0.7007    0.4451

!    total energy              =    -369.17580794 Ry
     estimated scf accuracy    <          6.3E-13 Ry

     The total energy is the sum of the following terms:
     one-electron contribution =    -811.13825626 Ry
     hartree contribution      =     411.01761547 Ry
     xc contribution           =     -87.07389056 Ry
     ewald contribution        =     118.01872341 Ry

     convergence has been achieved in  11 iterations

     negative rho (up, down):  3.491E-06 0.000E+00

     Forces acting on atoms (cartesian axes, Ry/au):

     atom    1 type  1   force =     0.00000000    0.00000000   -0.00002097
     atom    2 type  1   force =    -0.00000000   -0.00000000    0.00002097
     The non-local contrib.  to forces
     atom    1 type  1   force =    -0.00000000   -0.00000000    0.50922467
     atom    2 type  1   force =     0.00000000    0.00000000   -0.50922525
     The ionic contribution  to forces
     atom    1 type  1   force =    -0.00000001    0.00000001  -36.39055708
     atom    2 type  1   force =     0.00000001   -0.00000001   36.39055708
     The local contribution  to forces
     atom    1 type  1   force =     0.00000000   -0.00000000   35.88010060
     atom    2 type  1   force =     0.00000040   -0.00000023  -35.88010011
     The core correction contribution to forces
     atom    1 type  1   force =    -0.00000000    0.00000000    0.00121437
     atom    2 type  1   force =     0.00000003   -0.00000002   -0.00121737
     The Hubbard contrib.    to forces
     atom    1 type  1   force =     0.00000000    0.00000000    0.00000000
     atom    2 type  1   force =     0.00000000    0.00000000    0.00000000
     The SCF correction term to forces
     atom    1 type  1   force =     0.00000000   -0.00000000   -0.00000000
     atom    2 type  1   force =     0.00000000   -0.00000000    0.00000479

     Total force =     0.000021     Total SCF correction =     0.000005
     SCF correction compared to forces is large: reduce conv_thr to get better values


     Computing stress (Cartesian axis) and pressure


     negative rho (up, down):  3.491E-06 0.000E+00
          total   stress  (Ry/bohr**3)                   (kbar)     P=       -0.02
   0.00000015  -0.00000000   0.00000000            0.02       -0.00        0.00
  -0.00000000   0.00000015   0.00000000           -0.00        0.02        0.00
   0.00000000   0.00000000  -0.00000062            0.00        0.00       -0.09

     kinetic stress (kbar)   4883.83     -0.00      0.00
                               -0.00   4883.83      0.00
                                0.00      0.00   4909.38

     local   stress (kbar) -64829.07      0.00     -0.00
                                0.00 -64829.07      0.00
                               -0.00      0.00  65582.72

     nonloc. stress (kbar)     43.32      0.00      0.00
                               -0.00     43.32      0.00
                                0.00      0.00     62.02

     hartree stress (kbar)  35117.86      0.00     -0.00
                                0.00  35117.86     -0.00
                               -0.00     -0.00 -27997.61

     exc-cor stress (kbar)   2973.37     -0.00      0.00
                               -0.00   2973.37     -0.00
                                0.00     -0.00   2972.45

     corecor stress (kbar)  -4678.41      0.00      0.00
                                0.00  -4678.41     -0.00
                                0.00     -0.00  -4678.95

     ewald   stress (kbar)  26489.12     -0.00      0.00
                               -0.00  26489.12     -0.00
                                0.00     -0.00 -40850.09

     hubbard stress (kbar)      0.00      0.00      0.00
                                0.00      0.00      0.00
                                0.00      0.00      0.00

     DFT-D   stress (kbar)      0.00      0.00      0.00
                                0.00      0.00      0.00
                                0.00      0.00      0.00

     XDM     stress (kbar)      0.00      0.00      0.00
                                0.00      0.00      0.00
                                0.00      0.00      0.00

     dft-nl  stress (kbar)      0.00      0.00      0.00
                                0.00      0.00      0.00
                                0.00      0.00      0.00

     TS-vdW  stress (kbar)      0.00      0.00      0.00
                                0.00      0.00      0.00
                                0.00      0.00      0.00


     Energy error            =      6.3E-09
     Gradient error          =      2.1E-05
     Cell gradient error     =      1.5E-07


     number of scf cycles    =   3
     number of bfgs steps    =   2

     enthalpy old            =    -369.1758079307 Ry
     enthalpy new            =    -369.1758079370 Ry

     CASE: enthalpy_new < enthalpy_old

     Message from routine bfgs:
     history already reset at previous step: stopping
     small trust_radius: resetting bfgs history

     new trust radius        =       0.0000287891 bohr
     new conv_thr            =            8.0E-12 Ry

     new unit-cell volume =   1431.48580 a.u.^3 (   212.12431 Ang^3 )
     density =      0.18805 g/cm^3

CELL_PARAMETERS (alat=  7.63615650)
   1.000019165  -0.000000000   0.000000000
  -0.500009582   0.866042001   0.000000000
   0.000000000   0.000000000   3.712062719

ATOMIC_POSITIONS (crystal)
Sb            0.0000000000        0.0000000000        0.5000000000    0   0   0
Sb            0.3333333330        0.6666666670        0.6091546328



     Writing output data file ./tmp/Sb.save/
     NEW-OLD atomic charge density approx. for the potential

     negative rho (up, down):  3.443E-06 0.000E+00
     extrapolated charge   30.00021, renormalised to   30.00000

     total cpu time spent up to now is       97.2 secs

     Self-consistent Calculation

     iteration #  1     ecut=    60.00 Ry     beta= 0.50
     Davidson diagonalization with overlap
     ethr =  1.00E-06,  avg # of iterations =  2.0

     Threshold (ethr) on eigenvalues was too large:
     Diagonalizing with lowered threshold

     Davidson diagonalization with overlap
     ethr =  7.90E-11,  avg # of iterations =  1.0

     negative rho (up, down):  3.461E-06 0.000E+00

     total cpu time spent up to now is      102.4 secs

     total energy              =    -369.17580791 Ry
     estimated scf accuracy    <       0.00000002 Ry

     iteration #  2     ecut=    60.00 Ry     beta= 0.50
     Davidson diagonalization with overlap
     ethr =  7.90E-11,  avg # of iterations =  3.0

     negative rho (up, down):  3.474E-06 0.000E+00

     total cpu time spent up to now is      105.6 secs

     total energy              =    -369.17580794 Ry
     estimated scf accuracy    <       0.00000003 Ry

     iteration #  3     ecut=    60.00 Ry     beta= 0.50
[...]
   -29.3420 -29.3334 -29.2587 -29.2534 -29.2158 -29.1447 -29.1410 -29.1071
   -29.0651 -29.0538 -12.1639  -7.1904  -2.1842  -1.4313  -1.1196   1.2689
     2.4368   2.4988   3.8587   3.9726

     occupation numbers 
     1.0000   1.0000   1.0000   1.0000   1.0000   1.0000   1.0000   1.0000
     1.0000   1.0000   1.0000   1.0000   1.0000   1.0000   1.0000   0.0000
     0.0000   0.0000   0.0000   0.0000

          k = 0.0000 0.2309 0.0000 ( 11284 PWs)   bands (ev):

   -29.3404 -29.3214 -29.2578 -29.2460 -29.2113 -29.1500 -29.1423 -29.1101
   -29.0788 -29.0545 -11.9178  -7.2206  -3.0489  -1.4709  -1.3757   0.8122
     2.7377   2.8275   4.0537   4.2282

     occupation numbers 
     1.0000   1.0000   1.0000   1.0000   1.0000   1.0000   1.0000   1.0000
     1.0000   1.0000   1.0000   1.0000   1.0000   1.0000   1.0000   0.0000
     0.0000   0.0000   0.0000   0.0000

          k = 0.0000 0.3079 0.0000 ( 11252 PWs)   bands (ev):

   -29.3385 -29.3059 -29.2565 -29.2363 -29.2048 -29.1571 -29.1449 -29.1149
   -29.0953 -29.0553 -11.5823  -7.3752  -3.6807  -1.8012  -1.4297   0.4920
     2.6886   2.8668   4.3272   4.5147

     occupation numbers 
     1.0000   1.0000   1.0000   1.0000   1.0000   1.0000   1.0000   1.0000
     1.0000   1.0000   1.0000   1.0000   1.0000   1.0000   1.0000   0.0000
     0.0000   0.0000   0.0000   0.0000

          k = 0.0000 0.3849 0.0000 ( 11232 PWs)   bands (ev):

   -29.3366 -29.2893 -29.2536 -29.2250 -29.1971 -29.1660 -29.1496 -29.1258
   -29.1077 -29.0560 -11.1727  -7.7191  -3.9854  -2.0709  -1.6818   0.4451
     2.2900   2.8958   4.6547   4.8170

     occupation numbers 
     1.0000   1.0000   1.0000   1.0000   1.0000   1.0000   1.0000   1.0000
     1.0000   1.0000   1.0000   1.0000   1.0000   1.0000   1.0000   0.0000
     0.0000   0.0000   0.0000   0.0000

          k = 0.0000 0.4619 0.0000 ( 11222 PWs)   bands (ev):

   -29.3351 -29.2768 -29.2456 -29.2128 -29.1899 -29.1764 -29.1566 -29.1425
   -29.1121 -29.0567 -10.7274  -8.1965  -4.0049  -2.2594  -2.0481   0.6075
     1.9037   2.8778   4.4864   5.3569

     occupation numbers 
     1.0000   1.0000   1.0000   1.0000   1.0000   1.0000   1.0000   1.0000
     1.0000   1.0000   1.0000   1.0000   1.0000   1.0000   1.0000   0.0000
     0.0000   0.0000   0.0000   0.0000

          k = 0.0000 0.5388 0.0000 ( 11222 PWs)   bands (ev):

   -29.3343 -29.2719 -29.2340 -29.2003 -29.1880 -29.1878 -29.1613 -29.1549
   -29.1136 -29.0570 -10.3660  -8.6029  -3.9118  -2.3560  -2.3321   0.8042
     1.6358   2.8576   4.2847   5.9778

     occupation numbers 
     1.0000   1.0000   1.0000   1.0000   1.0000   1.0000   1.0000   1.0000
     1.0000   1.0000   1.0000   1.0000   1.0000   1.0000   1.0000   0.0000
     0.0000   0.0000   0.0000   0.0000

          k = 0.0667 0.1155 0.0000 ( 11283 PWs)   bands (ev):

   -29.3424 -29.3358 -29.2588 -29.2551 -29.2167 -29.1437 -29.1407 -29.1064
   -29.0622 -29.0537 -12.2136  -7.1921  -1.9044  -1.4509  -1.0912   1.7449
     1.7722   2.5902   3.8169   3.9029

     occupation numbers 
     1.0000   1.0000   1.0000   1.0000   1.0000   1.0000   1.0000   1.0000
     1.0000   1.0000   1.0000   1.0000   1.0000   1.0000   1.0000   0.0000
     0.0000   0.0000   0.0000   0.0000

          k = 0.0667 0.1924 0.0000 ( 11279 PWs)   bands (ev):

   -29.3410 -29.3260 -29.2576 -29.2495 -29.2130 -29.1482 -29.1413 -29.1089
   -29.0734 -29.0543 -12.0155  -7.1995  -2.7047  -1.5271  -1.3697   1.3160
     2.2070   2.9578   4.0023   4.1355

     occupation numbers 
     1.0000   1.0000   1.0000   1.0000   1.0000   1.0000   1.0000   1.0000
     1.0000   1.0000   1.0000   1.0000   1.0000   1.0000   1.0000   0.0000
     0.0000   0.0000   0.0000   0.0000

          k = 0.0667 0.2694 0.0000 ( 11255 PWs)   bands (ev):

   -29.3393 -29.3121 -29.2563 -29.2415 -29.2072 -29.1547 -29.1428 -29.1127
   -29.0888 -29.0551 -11.7242  -7.2892  -3.4027  -1.9306  -1.3533   0.9058
     2.5226   2.9678   4.2203   4.3997

     occupation numbers 
     1.0000   1.0000   1.0000   1.0000   1.0000   1.0000   1.0000   1.0000
     1.0000   1.0000   1.0000   1.0000   1.0000   1.0000   1.0000   0.0000
     0.0000   0.0000   0.0000   0.0000

          k = 0.0667 0.3464 0.0000 ( 11225 PWs)   bands (ev):

   -29.3374 -29.2956 -29.2544 -29.2316 -29.1997 -29.1632 -29.1459 -29.1200
   -29.1041 -29.0560 -11.3496  -7.5413  -3.8449  -2.2659  -1.4784   0.6953
     2.6102   2.6595   4.5560   4.7272

     occupation numbers 
     1.0000   1.0000   1.0000   1.0000   1.0000   1.0000   1.0000   1.0000
     1.0000   1.0000   1.0000   1.0000   1.0000   1.0000   1.0000   0.0000
     0.0000   0.0000   0.0000   0.0000

          k = 0.0667 0.4234 0.0000 ( 11214 PWs)   bands (ev):

   -29.3358 -29.2801 -29.2495 -29.2203 -29.1915 -29.1732 -29.1512 -29.1353
   -29.1116 -29.0568 -10.9150  -7.9673  -3.9913  -2.4963  -1.7844   0.7465
     2.1732   2.6940   4.6889   5.1258

     occupation numbers 
     1.0000   1.0000   1.0000   1.0000   1.0000   1.0000   1.0000   1.0000
     1.0000   1.0000   1.0000   1.0000   1.0000   1.0000   1.0000   0.0000
     0.0000   0.0000   0.0000   0.0000

          k = 0.0667 0.5004 0.0000 ( 11227 PWs)   bands (ev):

   -29.3346 -29.2714 -29.2386 -29.2085 -29.1876 -29.1825 -29.1586 -29.1502
   -29.1142 -29.0573 -10.4855  -8.4419  -3.9497  -2.5922  -2.1522   0.9685
     1.7773   2.7100   4.4412   5.7290

     occupation numbers 
     1.0000   1.0000   1.0000   1.0000   1.0000   1.0000   1.0000   1.0000
     1.0000   1.0000   1.0000   1.0000   1.0000   1.0000   1.0000   0.0000
     0.0000   0.0000   0.0000   0.0000

          k = 0.0667 0.5773 0.0000 ( 11218 PWs)   bands (ev):

   -29.3342 -29.2693 -29.2305 -29.1976 -29.1968 -29.1845 -29.1589 -29.1587
   -29.1149 -29.0575 -10.2666  -8.6851  -3.9018  -2.5656  -2.3684   1.1580
     1.5435   2.7188   4.3164   6.3211

     occupation numbers 
     1.0000   1.0000   1.0000   1.0000   1.0000   1.0000   1.0000   1.0000
     1.0000   1.0000   1.0000   1.0000   1.0000   1.0000   1.0000   0.0000
     0.0000   0.0000   0.0000   0.0000

          k = 0.1333 0.2309 0.0000 ( 11239 PWs)   bands (ev):

   -29.3396 -29.3142 -29.2556 -29.2442 -29.2079 -29.1542 -29.1418 -29.1121
   -29.0864 -29.0551 -11.7718  -7.2635  -3.2223  -2.1193  -1.3362   1.4318
     2.0725   3.1261   4.2381   4.3377

     occupation numbers 
     1.0000   1.0000   1.0000   1.0000   1.0000   1.0000   1.0000   1.0000
     1.0000   1.0000   1.0000   1.0000   1.0000   1.0000   1.0000   0.0000
     0.0000   0.0000   0.0000   0.0000

          k = 0.1333 0.3079 0.0000 ( 11233 PWs)   bands (ev):

   -29.3379 -29.2988 -29.2532 -29.2371 -29.2004 -29.1625 -29.1429 -29.1176
   -29.1016 -29.0562 -11.4395  -7.4498  -3.6257  -2.6351  -1.3800   1.2520
     2.1600   3.0343   4.5000   4.6603

     occupation numbers 
     1.0000   1.0000   1.0000   1.0000   1.0000   1.0000   1.0000   1.0000
     1.0000   1.0000   1.0000   1.0000   1.0000   1.0000   1.0000   0.0000
     0.0000   0.0000   0.0000   0.0000

          k = 0.1333 0.3849 0.0000 ( 11216 PWs)   bands (ev):

   -29.3363 -29.2818 -29.2500 -29.2281 -29.1917 -29.1726 -29.1456 -29.1302
   -29.1121 -29.0573 -11.0327  -7.8008  -3.8504  -2.9625  -1.5845   1.1426
     2.1361   2.8062   4.8216   5.0559

     occupation numbers 
     1.0000   1.0000   1.0000   1.0000   1.0000   1.0000   1.0000   1.0000
     1.0000   1.0000   1.0000   1.0000   1.0000   1.0000   1.0000   0.0000
     0.0000   0.0000   0.0000   0.0000

          k = 0.1333 0.4619 0.0000 ( 11215 PWs)   bands (ev):

   -29.3350 -29.2685 -29.2425 -29.2177 -29.1862 -29.1814 -29.1520 -29.1459
   -29.1164 -29.0582 -10.5868  -8.2656  -3.9375  -3.0527  -1.9353   1.2002
     2.0147   2.6187   4.7710   5.5598

     occupation numbers 
     1.0000   1.0000   1.0000   1.0000   1.0000   1.0000   1.0000   1.0000
     1.0000   1.0000   1.0000   1.0000   1.0000   1.0000   1.0000   0.0000
     0.0000   0.0000   0.0000   0.0000

          k = 0.1333 0.5388 0.0000 ( 11215 PWs)   bands (ev):

   -29.3343 -29.2635 -29.2300 -29.2075 -29.1973 -29.1792 -29.1613 -29.1529
   -29.1181 -29.0587 -10.2155  -8.6684  -3.9722  -2.9391  -2.2872   1.3189
     1.8860   2.5356   4.5607   6.2127

     occupation numbers 
     1.0000   1.0000   1.0000   1.0000   1.0000   1.0000   1.0000   1.0000
     1.0000   1.0000   1.0000   1.0000   1.0000   1.0000   1.0000   0.0000
     0.0000   0.0000   0.0000   0.0000

          k = 0.2000 0.3464 0.0000 ( 11221 PWs)   bands (ev):

   -29.3365 -29.2824 -29.2493 -29.2318 -29.1916 -29.1726 -29.1433 -29.1284
   -29.1125 -29.0575 -11.0728  -7.7394  -3.6775  -3.2703  -1.5141   1.5227
     1.7270   3.1754   4.8237   5.0270

     occupation numbers 
     1.0000   1.0000   1.0000   1.0000   1.0000   1.0000   1.0000   1.0000
     1.0000   1.0000   1.0000   1.0000   1.0000   1.0000   1.0000   0.0000
     0.0000   0.0000   0.0000   0.0000

          k = 0.2000 0.4234 0.0000 ( 11219 PWs)   bands (ev):

   -29.3353 -29.2657 -29.2446 -29.2241 -29.1848 -29.1820 -29.1462 -29.1438
   -29.1186 -29.0588 -10.6435  -8.1495  -3.8219  -3.4670  -1.7845   1.3123
     1.8271   3.1294   5.1381   5.5018

     occupation numbers 
     1.0000   1.0000   1.0000   1.0000   1.0000   1.0000   1.0000   1.0000
     1.0000   1.0000   1.0000   1.0000   1.0000   1.0000   1.0000   0.0000
     0.0000   0.0000   0.0000   0.0000

          k = 0.2000 0.5004 0.0000 ( 11215 PWs)   bands (ev):

   -29.3344 -29.2555 -29.2342 -29.2145 -29.1977 -29.1752 -29.1625 -29.1466
   -29.1222 -29.0598 -10.2043  -8.6006  -4.0948  -3.2165  -2.1434   1.0761
     2.1573   2.8823   5.0778   6.0776

     occupation numbers 
     1.0000   1.0000   1.0000   1.0000   1.0000   1.0000   1.0000   1.0000
     1.0000   1.0000   1.0000   1.0000   1.0000   1.0000   1.0000   0.0000
     0.0000   0.0000   0.0000   0.0000

          k = 0.2000 0.5773 0.0000 ( 11230 PWs)   bands (ev):

   -29.3341 -29.2533 -29.2231 -29.2111 -29.2052 -29.1772 -29.1664 -29.1482
   -29.1234 -29.0601  -9.9606  -8.8531  -4.1893  -3.0198  -2.3761   0.9972
     2.5124   2.5512   4.9914   6.3961

     occupation numbers 
     1.0000   1.0000   1.0000   1.0000   1.0000   1.0000   1.0000   1.0000
     1.0000   1.0000   1.0000   1.0000   1.0000   1.0000   1.0000   0.0000
     0.0000   0.0000   0.0000   0.0000

          k = 0.2667 0.4619 0.0000 ( 11231 PWs)   bands (ev):

   -29.3344 -29.2492 -29.2397 -29.2166 -29.1979 -29.1737 -29.1628 -29.1434
   -29.1245 -29.0602 -10.2049  -8.5644  -4.1594  -3.3081  -2.0719   0.9600
     2.1399   3.2060   5.7228   5.9608

     occupation numbers 
     1.0000   1.0000   1.0000   1.0000   1.0000   1.0000   1.0000   1.0000
     1.0000   1.0000   1.0000   1.0000   1.0000   1.0000   1.0000   0.0000
     0.0000   0.0000   0.0000   0.0000

          k = 0.2667 0.5388 0.0000 ( 11227 PWs)   bands (ev):

   -29.3339 -29.2414 -29.2287 -29.2127 -29.2057 -29.1788 -29.1681 -29.1423
   -29.1289 -29.0611  -9.7899  -8.9695  -4.3899  -2.9927  -2.3930   0.7262
     2.5307   2.9931   5.8226   6.0544

     occupation numbers 
     1.0000   1.0000   1.0000   1.0000   1.0000   1.0000   1.0000   1.0000
     1.0000   1.0000   1.0000   1.0000   1.0000   1.0000   1.0000   0.0000
     0.0000   0.0000   0.0000   0.0000

          k = 0.3333 0.5773 0.0000 ( 11256 PWs)   bands (ev):

   -29.3338 -29.2284 -29.2264 -29.2264 -29.1932 -29.1932 -29.1667 -29.1359
   -29.1359 -29.0616  -9.3702  -9.3702  -4.5112  -2.6845  -2.6845   0.5836
     2.8438   2.8438   5.8865   6.7420

     occupation numbers 
     1.0000   1.0000   1.0000   1.0000   1.0000   1.0000   1.0000   1.0000
     1.0000   1.0000   1.0000   1.0000   1.0000   1.0000   1.0000   0.0000
     0.0000   0.0000   0.0000   0.0000

     highest occupied, lowest unoccupied level (ev):    -0.7007    0.4451

!    total energy              =    -369.17580794 Ry
     estimated scf accuracy    <          7.0E-12 Ry

     The total energy is the sum of the following terms:
     one-electron contribution =    -811.13279398 Ry
     hartree contribution      =     411.01486596 Ry
     xc contribution           =     -87.07387900 Ry
     ewald contribution        =     118.01599908 Ry

     convergence has been achieved in  11 iterations

     negative rho (up, down):  3.493E-06 0.000E+00

     Forces acting on atoms (cartesian axes, Ry/au):

     atom    1 type  1   force =    -0.00000000   -0.00000000   -0.00000864
     atom    2 type  1   force =     0.00000000    0.00000000    0.00000864
     The non-local contrib.  to forces
     atom    1 type  1   force =     0.00000000    0.00000000    0.50922853
     atom    2 type  1   force =    -0.00000000   -0.00000000   -0.50922786
     The ionic contribution  to forces
     atom    1 type  1   force =    -0.00000001    0.00000001  -36.39025378
     atom    2 type  1   force =     0.00000001   -0.00000001   36.39025378
     The local contribution  to forces
     atom    1 type  1   force =    -0.00000000   -0.00000000   35.87979290
     atom    2 type  1   force =     0.00000040   -0.00000023  -35.87979806
     The core correction contribution to forces
     atom    1 type  1   force =    -0.00000000    0.00000000    0.00121304
     atom    2 type  1   force =     0.00000003   -0.00000002   -0.00121621
     The Hubbard contrib.    to forces
     atom    1 type  1   force =     0.00000000    0.00000000    0.00000000
     atom    2 type  1   force =     0.00000000    0.00000000    0.00000000
     The SCF correction term to forces
     atom    1 type  1   force =    -0.00000000   -0.00000000    0.00000000
     atom    2 type  1   force =    -0.00000000    0.00000000   -0.00000327

     Total force =     0.000009     Total SCF correction =     0.000003
     SCF correction compared to forces is large: reduce conv_thr to get better values


     Computing stress (Cartesian axis) and pressure


     negative rho (up, down):  3.493E-06 0.000E+00
          total   stress  (Ry/bohr**3)                   (kbar)     P=       -0.02
   0.00000015   0.00000000   0.00000000            0.02        0.00        0.00
  -0.00000000   0.00000015   0.00000000           -0.00        0.02        0.00
   0.00000000   0.00000000  -0.00000062            0.00        0.00       -0.09

     kinetic stress (kbar)   4883.80      0.00      0.00
                               -0.00   4883.80      0.00
                                0.00      0.00   4909.34

     local   stress (kbar) -64827.91      0.00     -0.00
                                0.00 -64827.91      0.00
                               -0.00      0.00  65581.45

     nonloc. stress (kbar)     43.32     -0.00      0.00
                               -0.00     43.32      0.00
                                0.00      0.00     62.02

     hartree stress (kbar)  35117.27     -0.00     -0.00
                               -0.00  35117.27     -0.00
                               -0.00     -0.00 -27997.04

     exc-cor stress (kbar)   2973.34     -0.00      0.00
                               -0.00   2973.34     -0.00
                                0.00     -0.00   2972.43

     corecor stress (kbar)  -4678.38      0.00      0.00
                                0.00  -4678.38     -0.00
                                0.00     -0.00  -4678.92

     ewald   stress (kbar)  26488.58     -0.00      0.00
                               -0.00  26488.58     -0.00
                                0.00     -0.00 -40849.37

     hubbard stress (kbar)      0.00      0.00      0.00
                                0.00      0.00      0.00
                                0.00      0.00      0.00

     DFT-D   stress (kbar)      0.00      0.00      0.00
                                0.00      0.00      0.00
                                0.00      0.00      0.00

     XDM     stress (kbar)      0.00      0.00      0.00
                                0.00      0.00      0.00
                                0.00      0.00      0.00

     dft-nl  stress (kbar)      0.00      0.00      0.00
                                0.00      0.00      0.00
                                0.00      0.00      0.00

     TS-vdW  stress (kbar)      0.00      0.00      0.00
                                0.00      0.00      0.00
                                0.00      0.00      0.00



     Writing output data file ./tmp/Sb.save/

     init_run     :      3.69s CPU      3.94s WALL (       2 calls)
     electrons    :    126.96s CPU    142.79s WALL (       5 calls)
     update_pot   :      3.75s CPU      3.80s WALL (       3 calls)
     forces       :      5.25s CPU      6.61s WALL (       5 calls)
     stress       :     16.74s CPU     17.49s WALL (       5 calls)

     Called by init_run:
     wfcinit      :      1.29s CPU      1.38s WALL (       2 calls)
     wfcinit:atom :      0.02s CPU      0.02s WALL (      54 calls)
     wfcinit:wfcr :      1.24s CPU      1.32s WALL (      54 calls)
     potinit      :      0.69s CPU      0.71s WALL (       2 calls)
     hinit0       :      1.33s CPU      1.34s WALL (       2 calls)

     Called by electrons:
     c_bands      :     93.68s CPU    103.12s WALL (      49 calls)
     sum_band     :     23.90s CPU     27.90s WALL (      49 calls)
     v_of_rho     :      3.11s CPU      3.40s WALL (      51 calls)
     v_h          :      0.25s CPU      0.29s WALL (      51 calls)
     v_xc         :      3.54s CPU      3.84s WALL (      61 calls)
     newd         :      6.43s CPU      8.73s WALL (      51 calls)
     mix_rho      :      0.42s CPU      0.46s WALL (      49 calls)

     Called by c_bands:
     init_us_2    :      1.21s CPU      1.52s WALL (    2970 calls)
     cegterg      :     90.78s CPU    100.07s WALL (    1323 calls)

     Called by sum_band:
     sum_band:wei :      0.00s CPU      0.00s WALL (      49 calls)
     sum_band:loo :     16.91s CPU     17.73s WALL (      49 calls)
     sum_band:buf :      0.16s CPU      0.16s WALL (    1323 calls)
     sum_band:ini :      0.54s CPU      0.73s WALL (    1323 calls)
     sum_band:cal :      1.65s CPU      1.94s WALL (    1323 calls)
     sum_band:bec :      0.01s CPU      0.01s WALL (    1323 calls)
     addusdens    :      6.41s CPU      9.54s WALL (      49 calls)
     addusd:skk   :      0.02s CPU      0.03s WALL (      49 calls)
     addusd:dgemm :      0.96s CPU      3.06s WALL (      49 calls)
     addusd:qvan2 :      4.85s CPU      5.40s WALL (      49 calls)

     Called by *egterg:
     cdiaghg      :      1.33s CPU      1.83s WALL (    4688 calls)
     cegterg:over :      5.37s CPU      7.19s WALL (    3527 calls)
     cegterg:upda :      2.23s CPU      2.82s WALL (    3527 calls)
     cegterg:last :      3.82s CPU      4.59s WALL (    2575 calls)
     h_psi        :     73.20s CPU     77.28s WALL (    4904 calls)
     s_psi        :      2.29s CPU      2.98s WALL (    4904 calls)
     g_psi        :      0.15s CPU      0.16s WALL (    3527 calls)

     Called by h_psi:
     h_psi:calbec :      5.01s CPU      5.98s WALL (    4904 calls)
     vloc_psi     :     65.09s CPU     67.16s WALL (    4904 calls)
     add_vuspsi   :      2.75s CPU      3.65s WALL (    4904 calls)

     General routines
     calbec       :      7.27s CPU      8.68s WALL (    6902 calls)
     fft          :      3.25s CPU      3.41s WALL (     784 calls)
     ffts         :      0.09s CPU      0.09s WALL (     100 calls)
     fftw         :     73.98s CPU     76.29s WALL (  158756 calls)
     interpolate  :      0.24s CPU      0.27s WALL (      51 calls)

     Parallel routines
     fft_scatt_xy :      7.10s CPU      7.32s WALL (  159640 calls)
     fft_scatt_yz :     10.49s CPU     11.05s WALL (  159640 calls)

     PWSCF        :   2m36.99s CPU   2m55.82s WALL


   This run was terminated on:  17:26:47  30Apr2026            

=------------------------------------------------------------------------------=
   JOB DONE.
=------------------------------------------------------------------------------=
Note: The following floating-point exceptions are signalling: IEEE_INVALID_FLAG IEEE_DIVIDE_BY_ZERO IEEE_UNDERFLOW_FLAG
