
     Program PWSCF v.6.7MaX starts on 30Apr2026 at 17: 9:23 

     This program is part of the open-source Quantum ESPRESSO suite
     for quantum simulation of materials; please cite
         "P. Giannozzi et al., J. Phys.:Condens. Matter 21 395502 (2009);
         "P. Giannozzi et al., J. Phys.:Condens. Matter 29 465901 (2017);
          URL http://www.quantum-espresso.org", 
     in publications or presentations arising from this work. More details at
     http://www.quantum-espresso.org/quote

     Parallel version (MPI & OpenMP), running on       4 processor cores
     Number of MPI processes:                 4
     Threads/MPI process:                     1

     MPI processes distributed on     1 nodes
     R & G space division:  proc/nbgrp/npool/nimage =       4
     Waiting for input...
     Reading input from standard input

     Current dimensions of program PWSCF are:
     Max number of different atomic species (ntypx) = 10
     Max number of k-points (npk) =  40000
     Max angular momentum in pseudopotentials (lmaxx) =  3

     Subspace diagonalization in iterative solution of the eigenvalue problem:
     a serial algorithm will be used


     Parallelization info
     --------------------
     sticks:   dense  smooth     PW     G-vecs:    dense   smooth      PW
     Min         601     238     70                88885    22452    3441
     Max         602     239     72                88896    22473    3446
     Sum        2407     955    283               355571    89869   13773



     bravais-lattice index     =            4
     lattice parameter (alat)  =       7.6370  a.u.
     unit-cell volume          =    1431.7285 (a.u.)^3
     number of atoms/cell      =            2
     number of atomic types    =            1
     number of electrons       =        30.00
     number of Kohn-Sham states=           20
     kinetic-energy cutoff     =      60.0000  Ry
     charge density cutoff     =     600.0000  Ry
     scf convergence threshold =      1.0E-06
     mixing beta               =       0.7000
     number of iterations used =            8  plain     mixing
     energy convergence thresh.=      1.0E-04
     force convergence thresh. =      1.0E-03
     press convergence thresh. =      1.0E-03
     Exchange-correlation= SLA  PW   PSX  PSC
                           (   1   4  10   8   0   0   0)
     nstep                     =           50


     celldm(1)=   7.636950  celldm(2)=   0.000000  celldm(3)=   3.711677
     celldm(4)=   0.000000  celldm(5)=   0.000000  celldm(6)=   0.000000

     crystal axes: (cart. coord. in units of alat)
               a(1) = (   1.000000   0.000000   0.000000 )  
               a(2) = (  -0.500000   0.866025   0.000000 )  
               a(3) = (   0.000000   0.000000   3.711677 )  

     reciprocal axes: (cart. coord. in units 2 pi/alat)
               b(1) = (  1.000000  0.577350 -0.000000 )  
               b(2) = (  0.000000  1.154701  0.000000 )  
               b(3) = (  0.000000 -0.000000  0.269420 )  


     PseudoPot. # 1 for Sb read from file:
     /Users/cdhogan/Research/Codes/espresso/PSEUDO/GBRV-PBEsol-1.5/sb_pbesol_v1.4.uspp.F.UPF
     MD5 check sum: b66a27f2c95be5fc87b0bb5ef8c6d7fd
     Pseudo is Ultrasoft + core correction, Zval = 15.0
     Generated by new atomic code, or converted to UPF format
     Using radial grid of  891 points,  6 beta functions with: 
                l(1) =   0
                l(2) =   0
                l(3) =   1
                l(4) =   1
                l(5) =   2
                l(6) =   2
     Q(r) pseudized with  8 coefficients,  rinner =    1.350   1.350   1.350
                                                       1.350   1.350

     atomic species   valence    mass     pseudopotential
        Sb            15.00    12.01100     Sb( 1.00)

      6 Sym. Ops. (no inversion) found


                                    s                        frac. trans.

      isym =  1     identity                                     

 cryst.   s( 1) = (     1          0          0      )
                  (     0          1          0      )
                  (     0          0          1      )

 cart.    s( 1) = (  1.0000000  0.0000000  0.0000000 )
                  (  0.0000000  1.0000000  0.0000000 )
                  (  0.0000000  0.0000000  1.0000000 )


      isym =  2     120 deg rotation - cryst. axis [0,0,1]       

 cryst.   s( 2) = (     0          1          0      )
                  (    -1         -1          0      )
                  (     0          0          1      )

 cart.    s( 2) = ( -0.5000000 -0.8660254  0.0000000 )
                  (  0.8660254 -0.5000000  0.0000000 )
                  (  0.0000000  0.0000000  1.0000000 )


      isym =  3     120 deg rotation - cryst. axis [0,0,-1]      

 cryst.   s( 3) = (    -1         -1          0      )
                  (     1          0          0      )
                  (     0          0          1      )

 cart.    s( 3) = ( -0.5000000  0.8660254  0.0000000 )
                  ( -0.8660254 -0.5000000  0.0000000 )
                  (  0.0000000  0.0000000  1.0000000 )


      isym =  4     inv. 180 deg rotation - cart. axis [1,0,0]   

 cryst.   s( 4) = (    -1          0          0      )
                  (     1          1          0      )
                  (     0          0          1      )

 cart.    s( 4) = ( -1.0000000  0.0000000  0.0000000 )
                  (  0.0000000  1.0000000  0.0000000 )
                  (  0.0000000  0.0000000  1.0000000 )


      isym =  5     inv. 180 deg rotation - cryst. axis [0,1,0]  

 cryst.   s( 5) = (     1          1          0      )
                  (     0         -1          0      )
                  (     0          0          1      )

 cart.    s( 5) = (  0.5000000  0.8660254  0.0000000 )
                  (  0.8660254 -0.5000000  0.0000000 )
                  (  0.0000000  0.0000000  1.0000000 )


      isym =  6     inv. 180 deg rotation - cryst. axis [1,1,0]  

 cryst.   s( 6) = (     0         -1          0      )
                  (    -1          0          0      )
                  (     0          0          1      )

 cart.    s( 6) = (  0.5000000 -0.8660254  0.0000000 )
                  ( -0.8660254 -0.5000000  0.0000000 )
                  (  0.0000000  0.0000000  1.0000000 )


     point group C_3v (3m)  
     there are  3 classes
     the character table:

       E     2C3   3s_v 
A_1    1.00  1.00  1.00
A_2    1.00  1.00 -1.00
E      2.00 -1.00  0.00

     the symmetry operations in each class and the name of the first element:

     E        1
          identity                                               
     2C3      2    3
          120 deg rotation - cryst. axis [0,0,1]                 
     3s_v     4    5    6
          inv. 180 deg rotation - cart. axis [1,0,0]             

   Cartesian axes

     site n.     atom                  positions (alat units)
         1           Sb  tau(   1) = (   0.0000000   0.0000000   1.8558385  )
         2           Sb  tau(   2) = (  -0.0000000   0.5773503   2.2607824  )

   Crystallographic axes

     site n.     atom                  positions (cryst. coord.)
         1           Sb  tau(   1) = (  0.0000000  0.0000000  0.5000000  )
         2           Sb  tau(   2) = (  0.3333333  0.6666667  0.6091000  )

     number of k points=    27
                       cart. coord. in units 2pi/alat
        k(    1) = (   0.0000000   0.0000000   0.0000000), wk =   0.0088889
        k(    2) = (   0.0000000   0.0769800   0.0000000), wk =   0.0533333
        k(    3) = (   0.0000000   0.1539601   0.0000000), wk =   0.0533333
        k(    4) = (   0.0000000   0.2309401   0.0000000), wk =   0.0533333
        k(    5) = (   0.0000000   0.3079201   0.0000000), wk =   0.0533333
        k(    6) = (   0.0000000   0.3849002   0.0000000), wk =   0.0533333
        k(    7) = (   0.0000000   0.4618802   0.0000000), wk =   0.0533333
        k(    8) = (   0.0000000   0.5388603   0.0000000), wk =   0.0533333
        k(    9) = (   0.0666667   0.1154701   0.0000000), wk =   0.0533333
        k(   10) = (   0.0666667   0.1924501   0.0000000), wk =   0.1066667
        k(   11) = (   0.0666667   0.2694301   0.0000000), wk =   0.1066667
        k(   12) = (   0.0666667   0.3464102   0.0000000), wk =   0.1066667
        k(   13) = (   0.0666667   0.4233902   0.0000000), wk =   0.1066667
        k(   14) = (   0.0666667   0.5003702   0.0000000), wk =   0.1066667
        k(   15) = (   0.0666667   0.5773503   0.0000000), wk =   0.0533333
        k(   16) = (   0.1333333   0.2309401   0.0000000), wk =   0.0533333
        k(   17) = (   0.1333333   0.3079201   0.0000000), wk =   0.1066667
        k(   18) = (   0.1333333   0.3849002   0.0000000), wk =   0.1066667
        k(   19) = (   0.1333333   0.4618802   0.0000000), wk =   0.1066667
        k(   20) = (   0.1333333   0.5388603   0.0000000), wk =   0.1066667
        k(   21) = (   0.2000000   0.3464102   0.0000000), wk =   0.0533333
        k(   22) = (   0.2000000   0.4233902   0.0000000), wk =   0.1066667
        k(   23) = (   0.2000000   0.5003702   0.0000000), wk =   0.1066667
        k(   24) = (   0.2000000   0.5773503   0.0000000), wk =   0.0533333
        k(   25) = (   0.2666667   0.4618802   0.0000000), wk =   0.0533333
        k(   26) = (   0.2666667   0.5388603   0.0000000), wk =   0.1066667
        k(   27) = (   0.3333333   0.5773503   0.0000000), wk =   0.0177778

                       cryst. coord.
        k(    1) = (   0.0000000   0.0000000   0.0000000), wk =   0.0088889
        k(    2) = (   0.0000000   0.0666667   0.0000000), wk =   0.0533333
        k(    3) = (   0.0000000   0.1333333   0.0000000), wk =   0.0533333
        k(    4) = (   0.0000000   0.2000000   0.0000000), wk =   0.0533333
        k(    5) = (   0.0000000   0.2666667   0.0000000), wk =   0.0533333
        k(    6) = (   0.0000000   0.3333333   0.0000000), wk =   0.0533333
        k(    7) = (   0.0000000   0.4000000   0.0000000), wk =   0.0533333
        k(    8) = (   0.0000000   0.4666667   0.0000000), wk =   0.0533333
        k(    9) = (   0.0666667   0.0666667   0.0000000), wk =   0.0533333
        k(   10) = (   0.0666667   0.1333333   0.0000000), wk =   0.1066667
        k(   11) = (   0.0666667   0.2000000   0.0000000), wk =   0.1066667
        k(   12) = (   0.0666667   0.2666667   0.0000000), wk =   0.1066667
        k(   13) = (   0.0666667   0.3333333   0.0000000), wk =   0.1066667
        k(   14) = (   0.0666667   0.4000000   0.0000000), wk =   0.1066667
        k(   15) = (   0.0666667   0.4666667   0.0000000), wk =   0.0533333
        k(   16) = (   0.1333333   0.1333333   0.0000000), wk =   0.0533333
        k(   17) = (   0.1333333   0.2000000   0.0000000), wk =   0.1066667
        k(   18) = (   0.1333333   0.2666667   0.0000000), wk =   0.1066667
        k(   19) = (   0.1333333   0.3333333   0.0000000), wk =   0.1066667
        k(   20) = (   0.1333333   0.4000000   0.0000000), wk =   0.1066667
        k(   21) = (   0.2000000   0.2000000   0.0000000), wk =   0.0533333
        k(   22) = (   0.2000000   0.2666667   0.0000000), wk =   0.1066667
        k(   23) = (   0.2000000   0.3333333   0.0000000), wk =   0.1066667
        k(   24) = (   0.2000000   0.4000000   0.0000000), wk =   0.0533333
        k(   25) = (   0.2666667   0.2666667   0.0000000), wk =   0.0533333
        k(   26) = (   0.2666667   0.3333333   0.0000000), wk =   0.1066667
        k(   27) = (   0.3333333   0.3333333   0.0000000), wk =   0.0177778

     Dense  grid:   355571 G-vectors     FFT dimensions: (  60,  60, 225)

     Smooth grid:    89869 G-vectors     FFT dimensions: (  40,  40, 144)

     Dynamical RAM for                 wfc:       0.86 MB

     Dynamical RAM for     wfc (w. buffer):      24.00 MB

     Dynamical RAM for           str. fact:       1.36 MB

     Dynamical RAM for           local pot:       0.00 MB

     Dynamical RAM for          nlocal pot:       1.54 MB

     Dynamical RAM for                qrad:       3.93 MB

     Dynamical RAM for          rho,v,vnew:       8.77 MB

     Dynamical RAM for               rhoin:       2.92 MB

     Dynamical RAM for            rho*nmix:      21.70 MB

     Dynamical RAM for           G-vectors:       5.26 MB

     Dynamical RAM for          h,s,v(r/c):       0.07 MB

     Dynamical RAM for          <psi|beta>:       0.01 MB

     Dynamical RAM for                 psi:       1.71 MB

     Dynamical RAM for                hpsi:       1.71 MB

     Dynamical RAM for                spsi:       1.71 MB

     Dynamical RAM for      wfcinit/wfcrot:       1.72 MB

     Dynamical RAM for           addusdens:     255.01 MB

     Dynamical RAM for          addusforce:     258.41 MB

     Dynamical RAM for         addusstress:     272.65 MB

     Estimated static dynamical RAM per process >      80.02 MB

     Estimated max dynamical RAM per process >     352.67 MB

     Estimated total dynamical RAM >       1.38 GB

     Initial potential from superposition of free atoms

     starting charge   27.99998, renormalised to   30.00000

     negative rho (up, down):  2.087E-03 0.000E+00
     Starting wfcs are   18 randomized atomic wfcs +    2 random wfcs

     total cpu time spent up to now is        2.0 secs

     Self-consistent Calculation

     iteration #  1     ecut=    60.00 Ry     beta= 0.70
     Davidson diagonalization with overlap
     ethr =  1.00E-02,  avg # of iterations =  7.2

     negative rho (up, down):  1.369E-05 0.000E+00

     total cpu time spent up to now is        5.5 secs

     total energy              =    -368.29985356 Ry
     estimated scf accuracy    <       2.27806071 Ry

     iteration #  2     ecut=    60.00 Ry     beta= 0.70
     Davidson diagonalization with overlap
     ethr =  7.59E-03,  avg # of iterations =  2.4

     negative rho (up, down):  2.025E-07 0.000E+00

     total cpu time spent up to now is        8.1 secs

     total energy              =    -369.09103459 Ry
     estimated scf accuracy    <       0.41768012 Ry

     iteration #  3     ecut=    60.00 Ry     beta= 0.70
     Davidson diagonalization with overlap
     ethr =  1.39E-03,  avg # of iterations =  2.0

     total cpu time spent up to now is       10.6 secs

     total energy              =    -369.17462076 Ry
     estimated scf accuracy    <       0.00722547 Ry

     iteration #  4     ecut=    60.00 Ry     beta= 0.70
     Davidson diagonalization with overlap
     ethr =  2.41E-05,  avg # of iterations =  8.1

     negative rho (up, down):  2.638E-07 0.000E+00

     total cpu time spent up to now is       13.8 secs

     total energy              =    -369.17574269 Ry
     estimated scf accuracy    <       0.00044867 Ry

     iteration #  5     ecut=    60.00 Ry     beta= 0.70
     Davidson diagonalization with overlap
     ethr =  1.50E-06,  avg # of iterations =  5.9

     negative rho (up, down):  1.595E-06 0.000E+00

     total cpu time spent up to now is       16.6 secs

     total energy              =    -369.17574819 Ry
     estimated scf accuracy    <       0.00032305 Ry

     iteration #  6     ecut=    60.00 Ry     beta= 0.70
     Davidson diagonalization with overlap
     ethr =  1.08E-06,  avg # of iterations =  2.1

     negative rho (up, down):  2.338E-06 0.000E+00

     total cpu time spent up to now is       18.8 secs

     total energy              =    -369.17579901 Ry
     estimated scf accuracy    <       0.00007053 Ry

     iteration #  7     ecut=    60.00 Ry     beta= 0.70
     Davidson diagonalization with overlap
     ethr =  2.35E-07,  avg # of iterations =  1.7

     negative rho (up, down):  3.543E-06 0.000E+00

     total cpu time spent up to now is       20.9 secs

     End of self-consistent calculation

          k = 0.0000 0.0000 0.0000 ( 11241 PWs)   bands (ev):

   -29.3453 -29.3453 -29.2615 -29.2615 -29.2206 -29.1419 -29.1419 -29.1059
   -29.0547 -29.0547 -12.3670  -7.2120  -1.5206  -0.7054  -0.7054   0.9715
     2.1182   2.1182   3.6522   3.6872

     occupation numbers 
     1.0000   1.0000   1.0000   1.0000   1.0000   1.0000   1.0000   1.0000
     1.0000   1.0000   1.0000   1.0000   1.0000   1.0000   1.0000   0.0000
     0.0000   0.0000   0.0000   0.0000

          k = 0.0000 0.0770 0.0000 ( 11265 PWs)   bands (ev):

   -29.3449 -29.3427 -29.2612 -29.2599 -29.2198 -29.1430 -29.1420 -29.1066
   -29.0577 -29.0548 -12.3167  -7.2032  -1.4953  -1.2572  -0.8282   1.3779
     2.0182   2.2362   3.7083   3.7590

     occupation numbers 
     1.0000   1.0000   1.0000   1.0000   1.0000   1.0000   1.0000   1.0000
     1.0000   1.0000   1.0000   1.0000   1.0000   1.0000   1.0000   0.0000
     0.0000   0.0000   0.0000   0.0000

          k = 0.0000 0.1540 0.0000 ( 11295 PWs)   bands (ev):

   -29.3438 -29.3352 -29.2605 -29.2552 -29.2173 -29.1462 -29.1426 -29.1084
   -29.0665 -29.0553 -12.1670  -7.1908  -2.1885  -1.4315  -1.1242   1.2656
     2.4333   2.4962   3.8555   3.9691

     occupation numbers 
     1.0000   1.0000   1.0000   1.0000   1.0000   1.0000   1.0000   1.0000
     1.0000   1.0000   1.0000   1.0000   1.0000   1.0000   1.0000   0.0000
     0.0000   0.0000   0.0000   0.0000

          k = 0.0000 0.2309 0.0000 ( 11284 PWs)   bands (ev):

   -29.3422 -29.3231 -29.2595 -29.2477 -29.2128 -29.1515 -29.1438 -29.1115
   -29.0803 -29.0559 -11.9209  -7.2214  -3.0527  -1.4754  -1.3761   0.8095
     2.7355   2.8248   4.0505   4.2249

     occupation numbers 
     1.0000   1.0000   1.0000   1.0000   1.0000   1.0000   1.0000   1.0000
     1.0000   1.0000   1.0000   1.0000   1.0000   1.0000   1.0000   0.0000
     0.0000   0.0000   0.0000   0.0000

          k = 0.0000 0.3079 0.0000 ( 11260 PWs)   bands (ev):

   -29.3403 -29.3077 -29.2582 -29.2380 -29.2063 -29.1587 -29.1464 -29.1163
   -29.0968 -29.0567 -11.5855  -7.3766  -3.6838  -1.8056  -1.4304   0.4898
     2.6864   2.8652   4.3244   4.5115

     occupation numbers 
     1.0000   1.0000   1.0000   1.0000   1.0000   1.0000   1.0000   1.0000
     1.0000   1.0000   1.0000   1.0000   1.0000   1.0000   1.0000   0.0000
     0.0000   0.0000   0.0000   0.0000

          k = 0.0000 0.3849 0.0000 ( 11232 PWs)   bands (ev):

   -29.3384 -29.2911 -29.2552 -29.2267 -29.1986 -29.1676 -29.1511 -29.1274
   -29.1090 -29.0575 -11.1759  -7.7212  -3.9876  -2.0753  -1.6828   0.4431
     2.2881   2.8946   4.6525   4.8137

     occupation numbers 
     1.0000   1.0000   1.0000   1.0000   1.0000   1.0000   1.0000   1.0000
     1.0000   1.0000   1.0000   1.0000   1.0000   1.0000   1.0000   0.0000
     0.0000   0.0000   0.0000   0.0000

          k = 0.0000 0.4619 0.0000 ( 11222 PWs)   bands (ev):

   -29.3369 -29.2786 -29.2472 -29.2144 -29.1914 -29.1780 -29.1581 -29.1441
   -29.1135 -29.0582 -10.7307  -8.1991  -4.0066  -2.2637  -2.0492   0.6052
     1.9025   2.8768   4.4848   5.3540

     occupation numbers 
     1.0000   1.0000   1.0000   1.0000   1.0000   1.0000   1.0000   1.0000
     1.0000   1.0000   1.0000   1.0000   1.0000   1.0000   1.0000   0.0000
     0.0000   0.0000   0.0000   0.0000

          k = 0.0000 0.5389 0.0000 ( 11222 PWs)   bands (ev):

   -29.3361 -29.2737 -29.2356 -29.2019 -29.1897 -29.1895 -29.1627 -29.1565
   -29.1150 -29.0585 -10.3693  -8.6057  -3.9133  -2.3603  -2.3330   0.8011
     1.6356   2.8567   4.2831   5.9749

     occupation numbers 
     1.0000   1.0000   1.0000   1.0000   1.0000   1.0000   1.0000   1.0000
     1.0000   1.0000   1.0000   1.0000   1.0000   1.0000   1.0000   0.0000
     0.0000   0.0000   0.0000   0.0000

          k = 0.0667 0.1155 0.0000 ( 11283 PWs)   bands (ev):

   -29.3442 -29.3376 -29.2606 -29.2569 -29.2181 -29.1452 -29.1423 -29.1078
   -29.0636 -29.0551 -12.2167  -7.1924  -1.9089  -1.4511  -1.0957   1.7408
     1.7694   2.5873   3.8137   3.8994

     occupation numbers 
     1.0000   1.0000   1.0000   1.0000   1.0000   1.0000   1.0000   1.0000
     1.0000   1.0000   1.0000   1.0000   1.0000   1.0000   1.0000   0.0000
     0.0000   0.0000   0.0000   0.0000

          k = 0.0667 0.1925 0.0000 ( 11279 PWs)   bands (ev):

   -29.3428 -29.3278 -29.2594 -29.2512 -29.2145 -29.1498 -29.1429 -29.1103
   -29.0749 -29.0557 -12.0187  -7.2001  -2.7087  -1.5311  -1.3704   1.3132
     2.2038   2.9554   3.9991   4.1320

     occupation numbers 
     1.0000   1.0000   1.0000   1.0000   1.0000   1.0000   1.0000   1.0000
     1.0000   1.0000   1.0000   1.0000   1.0000   1.0000   1.0000   0.0000
     0.0000   0.0000   0.0000   0.0000

          k = 0.0667 0.2694 0.0000 ( 11261 PWs)   bands (ev):

   -29.3411 -29.3139 -29.2581 -29.2432 -29.2087 -29.1563 -29.1444 -29.1141
   -29.0902 -29.0566 -11.7273  -7.2903  -3.4061  -1.9347  -1.3540   0.9034
     2.5203   2.9658   4.2172   4.3964

     occupation numbers 
     1.0000   1.0000   1.0000   1.0000   1.0000   1.0000   1.0000   1.0000
     1.0000   1.0000   1.0000   1.0000   1.0000   1.0000   1.0000   0.0000
     0.0000   0.0000   0.0000   0.0000

          k = 0.0667 0.3464 0.0000 ( 11227 PWs)   bands (ev):

   -29.3392 -29.2974 -29.2561 -29.2333 -29.2012 -29.1648 -29.1474 -29.1215
   -29.1055 -29.0575 -11.3528  -7.5431  -3.8475  -2.2699  -1.4794   0.6934
     2.6080   2.6581   4.5534   4.7238

     occupation numbers 
     1.0000   1.0000   1.0000   1.0000   1.0000   1.0000   1.0000   1.0000
     1.0000   1.0000   1.0000   1.0000   1.0000   1.0000   1.0000   0.0000
     0.0000   0.0000   0.0000   0.0000

          k = 0.0667 0.4234 0.0000 ( 11216 PWs)   bands (ev):

   -29.3376 -29.2818 -29.2512 -29.2220 -29.1930 -29.1748 -29.1527 -29.1368
   -29.1130 -29.0583 -10.9182  -7.9698  -3.9932  -2.5002  -1.7857   0.7447
     2.1714   2.6928   4.6871   5.1228

     occupation numbers 
     1.0000   1.0000   1.0000   1.0000   1.0000   1.0000   1.0000   1.0000
     1.0000   1.0000   1.0000   1.0000   1.0000   1.0000   1.0000   0.0000
     0.0000   0.0000   0.0000   0.0000

          k = 0.0667 0.5004 0.0000 ( 11227 PWs)   bands (ev):

   -29.3364 -29.2731 -29.2402 -29.2101 -29.1893 -29.1842 -29.1600 -29.1517
   -29.1156 -29.0588 -10.4888  -8.4447  -3.9514  -2.5959  -2.1536   0.9663
     1.7761   2.7091   4.4396   5.7261

     occupation numbers 
     1.0000   1.0000   1.0000   1.0000   1.0000   1.0000   1.0000   1.0000
     1.0000   1.0000   1.0000   1.0000   1.0000   1.0000   1.0000   0.0000
     0.0000   0.0000   0.0000   0.0000

          k = 0.0667 0.5774 0.0000 ( 11218 PWs)   bands (ev):

   -29.3360 -29.2710 -29.2321 -29.1993 -29.1984 -29.1862 -29.1604 -29.1601
   -29.1163 -29.0590 -10.2699  -8.6880  -3.9034  -2.5696  -2.3694   1.1547
     1.5435   2.7180   4.3147   6.3178

     occupation numbers 
     1.0000   1.0000   1.0000   1.0000   1.0000   1.0000   1.0000   1.0000
     1.0000   1.0000   1.0000   1.0000   1.0000   1.0000   1.0000   0.0000
     0.0000   0.0000   0.0000   0.0000

          k = 0.1333 0.2309 0.0000 ( 11243 PWs)   bands (ev):

   -29.3414 -29.3160 -29.2573 -29.2459 -29.2094 -29.1558 -29.1433 -29.1135
   -29.0878 -29.0566 -11.7750  -7.2645  -3.2259  -2.1233  -1.3368   1.4298
     2.0696   3.1241   4.2346   4.3342

     occupation numbers 
     1.0000   1.0000   1.0000   1.0000   1.0000   1.0000   1.0000   1.0000
     1.0000   1.0000   1.0000   1.0000   1.0000   1.0000   1.0000   0.0000
     0.0000   0.0000   0.0000   0.0000

          k = 0.1333 0.3079 0.0000 ( 11233 PWs)   bands (ev):

   -29.3397 -29.3006 -29.2549 -29.2388 -29.2020 -29.1641 -29.1445 -29.1191
   -29.1030 -29.0577 -11.4427  -7.4514  -3.6287  -2.6390  -1.3809   1.2503
     2.1583   3.0319   4.4966   4.6568

     occupation numbers 
     1.0000   1.0000   1.0000   1.0000   1.0000   1.0000   1.0000   1.0000
     1.0000   1.0000   1.0000   1.0000   1.0000   1.0000   1.0000   0.0000
     0.0000   0.0000   0.0000   0.0000

          k = 0.1333 0.3849 0.0000 ( 11218 PWs)   bands (ev):

   -29.3381 -29.2836 -29.2517 -29.2298 -29.1932 -29.1742 -29.1471 -29.1318
   -29.1135 -29.0588 -11.0360  -7.8030  -3.8527  -2.9662  -1.5857   1.1413
     2.1351   2.8037   4.8188   5.0524

     occupation numbers 
     1.0000   1.0000   1.0000   1.0000   1.0000   1.0000   1.0000   1.0000
     1.0000   1.0000   1.0000   1.0000   1.0000   1.0000   1.0000   0.0000
     0.0000   0.0000   0.0000   0.0000

          k = 0.1333 0.4619 0.0000 ( 11215 PWs)   bands (ev):

   -29.3368 -29.2703 -29.2441 -29.2193 -29.1878 -29.1830 -29.1535 -29.1475
   -29.1177 -29.0596 -10.5900  -8.2683  -3.9396  -3.0560  -1.9366   1.1993
     2.0131   2.6170   4.7689   5.5568

     occupation numbers 
     1.0000   1.0000   1.0000   1.0000   1.0000   1.0000   1.0000   1.0000
     1.0000   1.0000   1.0000   1.0000   1.0000   1.0000   1.0000   0.0000
     0.0000   0.0000   0.0000   0.0000

          k = 0.1333 0.5389 0.0000 ( 11215 PWs)   bands (ev):

   -29.3361 -29.2653 -29.2316 -29.2091 -29.1989 -29.1809 -29.1629 -29.1543
   -29.1194 -29.0601 -10.2188  -8.6713  -3.9744  -2.9422  -2.2883   1.3185
     1.8833   2.5350   4.5586   6.2099

     occupation numbers 
     1.0000   1.0000   1.0000   1.0000   1.0000   1.0000   1.0000   1.0000
     1.0000   1.0000   1.0000   1.0000   1.0000   1.0000   1.0000   0.0000
     0.0000   0.0000   0.0000   0.0000

          k = 0.2000 0.3464 0.0000 ( 11221 PWs)   bands (ev):

   -29.3383 -29.2842 -29.2510 -29.2335 -29.1931 -29.1742 -29.1448 -29.1299
   -29.1138 -29.0590 -11.0760  -7.7416  -3.6798  -3.2739  -1.5152   1.5217
     1.7259   3.1729   4.8194   5.0238

     occupation numbers 
     1.0000   1.0000   1.0000   1.0000   1.0000   1.0000   1.0000   1.0000
     1.0000   1.0000   1.0000   1.0000   1.0000   1.0000   1.0000   0.0000
     0.0000   0.0000   0.0000   0.0000

          k = 0.2000 0.4234 0.0000 ( 11221 PWs)   bands (ev):

   -29.3371 -29.2674 -29.2463 -29.2257 -29.1864 -29.1835 -29.1478 -29.1453
   -29.1200 -29.0603 -10.6467  -8.1522  -3.8248  -3.4695  -1.7858   1.3117
     1.8263   3.1273   5.1345   5.4987

     occupation numbers 
     1.0000   1.0000   1.0000   1.0000   1.0000   1.0000   1.0000   1.0000
     1.0000   1.0000   1.0000   1.0000   1.0000   1.0000   1.0000   0.0000
     0.0000   0.0000   0.0000   0.0000

          k = 0.2000 0.5004 0.0000 ( 11215 PWs)   bands (ev):

   -29.3362 -29.2572 -29.2359 -29.2161 -29.1994 -29.1768 -29.1641 -29.1480
   -29.1235 -29.0612 -10.2076  -8.6036  -4.0979  -3.2186  -2.1447   1.0756
     2.1566   2.8807   5.0747   6.0745

     occupation numbers 
     1.0000   1.0000   1.0000   1.0000   1.0000   1.0000   1.0000   1.0000
     1.0000   1.0000   1.0000   1.0000   1.0000   1.0000   1.0000   0.0000
     0.0000   0.0000   0.0000   0.0000

          k = 0.2000 0.5774 0.0000 ( 11230 PWs)   bands (ev):

   -29.3359 -29.2551 -29.2247 -29.2128 -29.2068 -29.1789 -29.1680 -29.1496
   -29.1248 -29.0616  -9.9639  -8.8562  -4.1924  -3.0219  -2.3773   0.9968
     2.5122   2.5493   4.9882   6.3936

     occupation numbers 
     1.0000   1.0000   1.0000   1.0000   1.0000   1.0000   1.0000   1.0000
     1.0000   1.0000   1.0000   1.0000   1.0000   1.0000   1.0000   0.0000
     0.0000   0.0000   0.0000   0.0000

          k = 0.2667 0.4619 0.0000 ( 11231 PWs)   bands (ev):

   -29.3362 -29.2509 -29.2414 -29.2182 -29.1995 -29.1753 -29.1644 -29.1449
   -29.1259 -29.0617 -10.2082  -8.5674  -4.1628  -3.3098  -2.0732   0.9595
     2.1395   3.2048   5.7184   5.9573

     occupation numbers 
     1.0000   1.0000   1.0000   1.0000   1.0000   1.0000   1.0000   1.0000
     1.0000   1.0000   1.0000   1.0000   1.0000   1.0000   1.0000   0.0000
     0.0000   0.0000   0.0000   0.0000

          k = 0.2667 0.5389 0.0000 ( 11230 PWs)   bands (ev):

   -29.3358 -29.2432 -29.2304 -29.2143 -29.2073 -29.1804 -29.1698 -29.1437
   -29.1302 -29.0625  -9.7931  -8.9726  -4.3933  -2.9943  -2.3944   0.7259
     2.5304   2.9924   5.8184   6.0513

     occupation numbers 
     1.0000   1.0000   1.0000   1.0000   1.0000   1.0000   1.0000   1.0000
     1.0000   1.0000   1.0000   1.0000   1.0000   1.0000   1.0000   0.0000
     0.0000   0.0000   0.0000   0.0000

          k = 0.3333 0.5774 0.0000 ( 11256 PWs)   bands (ev):

   -29.3356 -29.2300 -29.2281 -29.2281 -29.1948 -29.1948 -29.1683 -29.1373
   -29.1373 -29.0630  -9.3735  -9.3734  -4.5146  -2.6860  -2.6860   0.5834
     2.8436   2.8436   5.8836   6.7372

     occupation numbers 
     1.0000   1.0000   1.0000   1.0000   1.0000   1.0000   1.0000   1.0000
     1.0000   1.0000   1.0000   1.0000   1.0000   1.0000   1.0000   0.0000
     0.0000   0.0000   0.0000   0.0000

     highest occupied, lowest unoccupied level (ev):    -0.7054    0.4431

!    total energy              =    -369.17580779 Ry
     estimated scf accuracy    <       0.00000025 Ry

     The total energy is the sum of the following terms:
     one-electron contribution =    -811.15115471 Ry
     hartree contribution      =     411.02064892 Ry
     xc contribution           =     -87.07394578 Ry
     ewald contribution        =     118.02864378 Ry

     convergence has been achieved in   7 iterations

     negative rho (up, down):  3.543E-06 0.000E+00

     Forces acting on atoms (cartesian axes, Ry/au):

     atom    1 type  1   force =     0.00000000    0.00000000   -0.00030887
     atom    2 type  1   force =     0.00000000    0.00000000    0.00030887
     The non-local contrib.  to forces
     atom    1 type  1   force =     0.00000000    0.00000000    0.51052111
     atom    2 type  1   force =     0.00000000   -0.00000000   -0.50996896
     The ionic contribution  to forces
     atom    1 type  1   force =    -0.00000001    0.00000001  -36.37908261
     atom    2 type  1   force =     0.00000001   -0.00000001   36.37908261
     The local contribution  to forces
     atom    1 type  1   force =    -0.00000000   -0.00000000   35.86774731
     atom    2 type  1   force =     0.00000040   -0.00000023  -35.86909915
     The core correction contribution to forces
     atom    1 type  1   force =    -0.00000000    0.00000000    0.00125745
     atom    2 type  1   force =     0.00000003   -0.00000002   -0.00133387
     The Hubbard contrib.    to forces
     atom    1 type  1   force =     0.00000000    0.00000000    0.00000000
     atom    2 type  1   force =     0.00000000    0.00000000    0.00000000
     The SCF correction term to forces
     atom    1 type  1   force =     0.00000000   -0.00000000   -0.00000000
     atom    2 type  1   force =    -0.00000000    0.00000000    0.00166180

     Total force =     0.000309     Total SCF correction =     0.001662
     SCF correction compared to forces is large: reduce conv_thr to get better values


     Computing stress (Cartesian axis) and pressure


     negative rho (up, down):  3.543E-06 0.000E+00
          total   stress  (Ry/bohr**3)                   (kbar)     P=       -0.15
  -0.00000082   0.00000000   0.00000000           -0.12        0.00        0.00
  -0.00000000  -0.00000082   0.00000000           -0.00       -0.12        0.00
   0.00000000   0.00000000  -0.00000134            0.00        0.00       -0.20

     kinetic stress (kbar)   4882.87      0.00      0.00
                                0.00   4882.87      0.00
                                0.00      0.00   4908.54

     local   stress (kbar) -64819.47      0.00     -0.00
                                0.00 -64819.47      0.00
                               -0.00      0.00  65573.59

     nonloc. stress (kbar)     43.22     -0.00      0.00
                                0.00     43.22      0.00
                                0.00     -0.00     61.93

     hartree stress (kbar)  35112.07      0.00      0.00
                                0.00  35112.07     -0.00
                                0.00     -0.00 -27993.22

     exc-cor stress (kbar)   2972.84     -0.00      0.00
                               -0.00   2972.84     -0.00
                                0.00     -0.00   2971.92

     corecor stress (kbar)  -4677.58      0.00      0.00
                                0.00  -4677.58     -0.00
                                0.00     -0.00  -4678.12

     ewald   stress (kbar)  26485.94     -0.00      0.00
                               -0.00  26485.94     -0.00
                                0.00     -0.00 -40844.84

     hubbard stress (kbar)      0.00      0.00      0.00
                                0.00      0.00      0.00
                                0.00      0.00      0.00

     DFT-D   stress (kbar)      0.00      0.00      0.00
                                0.00      0.00      0.00
                                0.00      0.00      0.00

     XDM     stress (kbar)      0.00      0.00      0.00
                                0.00      0.00      0.00
                                0.00      0.00      0.00

     dft-nl  stress (kbar)      0.00      0.00      0.00
                                0.00      0.00      0.00
                                0.00      0.00      0.00

     TS-vdW  stress (kbar)      0.00      0.00      0.00
                                0.00      0.00      0.00
                                0.00      0.00      0.00



     BFGS Geometry Optimization
     Energy error            =      0.0E+00
     Gradient error          =      3.1E-04
     Cell gradient error     =      8.2E-07


     number of scf cycles    =   1
     number of bfgs steps    =   0

     enthalpy new            =    -369.1758077915 Ry

     new trust radius        =       0.0003088706 bohr
     new conv_thr            =       0.0000010000 Ry

     new unit-cell volume =   1431.67009 a.u.^3 (   212.15162 Ang^3 )
     density =      0.18802 g/cm^3

CELL_PARAMETERS (alat=  7.63695019)
   0.999979596  -0.000000000   0.000000000
  -0.499989798   0.866007734   0.000000000
   0.000000000   0.000000000   3.711676936

ATOMIC_POSITIONS (crystal)
Sb            0.0000000000        0.0000000000        0.5000000000    0   0   0
Sb            0.3333333330        0.6666666670        0.6091108965



     Writing output data file ./tmp/Sb.save/
     NEW-OLD atomic charge density approx. for the potential

     negative rho (up, down):  4.246E-06 0.000E+00
     extrapolated charge   29.99886, renormalised to   30.00000

     total cpu time spent up to now is       26.5 secs

     Self-consistent Calculation

     iteration #  1     ecut=    60.00 Ry     beta= 0.70
     Davidson diagonalization with overlap
     ethr =  1.00E-06,  avg # of iterations =  2.0

     Threshold (ethr) on eigenvalues was too large:
     Diagonalizing with lowered threshold

     Davidson diagonalization with overlap
     ethr =  3.74E-09,  avg # of iterations =  1.9

     negative rho (up, down):  3.723E-06 0.000E+00

     total cpu time spent up to now is       31.0 secs

     total energy              =    -369.17580663 Ry
     estimated scf accuracy    <       0.00000122 Ry

     iteration #  2     ecut=    60.00 Ry     beta= 0.70
     Davidson diagonalization with overlap
     ethr =  4.08E-09,  avg # of iterations =  3.0

     negative rho (up, down):  3.598E-06 0.000E+00

     total cpu time spent up to now is       33.8 secs

     total energy              =    -369.17580714 Ry
     estimated scf accuracy    <       0.00000592 Ry

     iteration #  3     ecut=    60.00 Ry     beta= 0.70
     Davidson diagonalization with overlap
     ethr =  4.08E-09,  avg # of iterations =  2.0

     negative rho (up, down):  3.559E-06 0.000E+00

     total cpu time spent up to now is       36.1 secs

     total energy              =    -369.17580790 Ry
     estimated scf accuracy    <       0.00000130 Ry

     iteration #  4     ecut=    60.00 Ry     beta= 0.70
     Davidson diagonalization with overlap
     ethr =  4.08E-09,  avg # of iterations =  1.5

     negative rho (up, down):  3.516E-06 0.000E+00

     total cpu time spent up to now is       38.2 secs

     End of self-consistent calculation

          k = 0.0000 0.0000 0.0000 ( 11241 PWs)   bands (ev):

   -29.3417 -29.3417 -29.2579 -29.2579 -29.2173 -29.1384 -29.1384 -29.1027
   -29.0512 -29.0512 -12.3639  -7.2098  -1.5186  -0.7019  -0.7019   0.9751
     2.1212   2.1212   3.6540   3.6898

     occupation numbers 
     1.0000   1.0000   1.0000   1.0000   1.0000   1.0000   1.0000   1.0000
     1.0000   1.0000   1.0000   1.0000   1.0000   1.0000   1.0000   0.0000
     0.0000   0.0000   0.0000   0.0000

          k = 0.0000 0.0770 0.0000 ( 11265 PWs)   bands (ev):

   -29.3414 -29.3392 -29.2577 -29.2563 -29.2165 -29.1395 -29.1385 -29.1033
   -29.0543 -29.0514 -12.3136  -7.2010  -1.4933  -1.2538  -0.8248   1.3815
     2.0212   2.2392   3.7101   3.7616

     occupation numbers 
     1.0000   1.0000   1.0000   1.0000   1.0000   1.0000   1.0000   1.0000
     1.0000   1.0000   1.0000   1.0000   1.0000   1.0000   1.0000   0.0000
     0.0000   0.0000   0.0000   0.0000

          k = 0.0000 0.1540 0.0000 ( 11295 PWs)   bands (ev):

   -29.3403 -29.3316 -29.2569 -29.2516 -29.2140 -29.1427 -29.1391 -29.1052
   -29.0631 -29.0518 -12.1639  -7.1885  -2.1852  -1.4294  -1.1208   1.2687
     2.4365   2.4991   3.8575   3.9717

     occupation numbers 
     1.0000   1.0000   1.0000   1.0000   1.0000   1.0000   1.0000   1.0000
     1.0000   1.0000   1.0000   1.0000   1.0000   1.0000   1.0000   0.0000
     0.0000   0.0000   0.0000   0.0000

          k = 0.0000 0.2309 0.0000 ( 11284 PWs)   bands (ev):

   -29.3386 -29.3196 -29.2560 -29.2441 -29.2095 -29.1480 -29.1404 -29.1082
   -29.0769 -29.0525 -11.9178  -7.2190  -3.0495  -1.4720  -1.3740   0.8125
     2.7383   2.8277   4.0528   4.2271

     occupation numbers 
     1.0000   1.0000   1.0000   1.0000   1.0000   1.0000   1.0000   1.0000
     1.0000   1.0000   1.0000   1.0000   1.0000   1.0000   1.0000   0.0000
     0.0000   0.0000   0.0000   0.0000

          k = 0.0000 0.3079 0.0000 ( 11260 PWs)   bands (ev):

   -29.3367 -29.3041 -29.2547 -29.2345 -29.2030 -29.1552 -29.1430 -29.1130
   -29.0934 -29.0533 -11.5823  -7.3740  -3.6809  -1.8023  -1.4283   0.4926
     2.6892   2.8678   4.3269   4.5136

     occupation numbers 
     1.0000   1.0000   1.0000   1.0000   1.0000   1.0000   1.0000   1.0000
     1.0000   1.0000   1.0000   1.0000   1.0000   1.0000   1.0000   0.0000
     0.0000   0.0000   0.0000   0.0000

          k = 0.0000 0.3849 0.0000 ( 11232 PWs)   bands (ev):

   -29.3349 -29.2875 -29.2518 -29.2232 -29.1952 -29.1641 -29.1476 -29.1240
   -29.1057 -29.0541 -11.1728  -7.7183  -3.9849  -2.0720  -1.6806   0.4459
     2.2908   2.8971   4.6548   4.8164

     occupation numbers 
     1.0000   1.0000   1.0000   1.0000   1.0000   1.0000   1.0000   1.0000
     1.0000   1.0000   1.0000   1.0000   1.0000   1.0000   1.0000   0.0000
     0.0000   0.0000   0.0000   0.0000

          k = 0.0000 0.4619 0.0000 ( 11222 PWs)   bands (ev):

   -29.3334 -29.2750 -29.2438 -29.2109 -29.1880 -29.1745 -29.1547 -29.1407
   -29.1102 -29.0547 -10.7275  -8.1961  -4.0041  -2.2604  -2.0469   0.6081
     1.9049   2.8792   4.4873   5.3565

     occupation numbers 
     1.0000   1.0000   1.0000   1.0000   1.0000   1.0000   1.0000   1.0000
     1.0000   1.0000   1.0000   1.0000   1.0000   1.0000   1.0000   0.0000
     0.0000   0.0000   0.0000   0.0000

          k = 0.0000 0.5389 0.0000 ( 11222 PWs)   bands (ev):

   -29.3326 -29.2701 -29.2322 -29.1984 -29.1861 -29.1860 -29.1594 -29.1531
   -29.1117 -29.0551 -10.3661  -8.6027  -3.9109  -2.3570  -2.3308   0.8042
     1.6377   2.8592   4.2857   5.9774

     occupation numbers 
     1.0000   1.0000   1.0000   1.0000   1.0000   1.0000   1.0000   1.0000
     1.0000   1.0000   1.0000   1.0000   1.0000   1.0000   1.0000   0.0000
     0.0000   0.0000   0.0000   0.0000

          k = 0.0667 0.1155 0.0000 ( 11283 PWs)   bands (ev):

   -29.3406 -29.3341 -29.2570 -29.2533 -29.2148 -29.1418 -29.1388 -29.1045
   -29.0602 -29.0517 -12.2136  -7.1901  -1.9055  -1.4490  -1.0923   1.7442
     1.7724   2.5903   3.8155   3.9022

     occupation numbers 
     1.0000   1.0000   1.0000   1.0000   1.0000   1.0000   1.0000   1.0000
     1.0000   1.0000   1.0000   1.0000   1.0000   1.0000   1.0000   0.0000
     0.0000   0.0000   0.0000   0.0000

          k = 0.0667 0.1925 0.0000 ( 11279 PWs)   bands (ev):

   -29.3393 -29.3243 -29.2558 -29.2477 -29.2112 -29.1463 -29.1394 -29.1070
   -29.0715 -29.0523 -12.0155  -7.1977  -2.7055  -1.5279  -1.3682   1.3162
     2.2069   2.9582   4.0011   4.1347

     occupation numbers 
     1.0000   1.0000   1.0000   1.0000   1.0000   1.0000   1.0000   1.0000
     1.0000   1.0000   1.0000   1.0000   1.0000   1.0000   1.0000   0.0000
     0.0000   0.0000   0.0000   0.0000

          k = 0.0667 0.2694 0.0000 ( 11261 PWs)   bands (ev):

   -29.3376 -29.3104 -29.2545 -29.2397 -29.2054 -29.1528 -29.1409 -29.1108
   -29.0868 -29.0531 -11.7242  -7.2877  -3.4031  -1.9314  -1.3518   0.9063
     2.5231   2.9685   4.2196   4.3986

     occupation numbers 
     1.0000   1.0000   1.0000   1.0000   1.0000   1.0000   1.0000   1.0000
     1.0000   1.0000   1.0000   1.0000   1.0000   1.0000   1.0000   0.0000
     0.0000   0.0000   0.0000   0.0000

          k = 0.0667 0.3464 0.0000 ( 11227 PWs)   bands (ev):

   -29.3357 -29.2938 -29.2526 -29.2298 -29.1978 -29.1613 -29.1439 -29.1181
   -29.1021 -29.0540 -11.3497  -7.5404  -3.8447  -2.2667  -1.4772   0.6962
     2.6108   2.6607   4.5558   4.7261

     occupation numbers 
     1.0000   1.0000   1.0000   1.0000   1.0000   1.0000   1.0000   1.0000
     1.0000   1.0000   1.0000   1.0000   1.0000   1.0000   1.0000   0.0000
     0.0000   0.0000   0.0000   0.0000

          k = 0.0667 0.4234 0.0000 ( 11216 PWs)   bands (ev):

   -29.3340 -29.2783 -29.2477 -29.2185 -29.1896 -29.1713 -29.1493 -29.1334
   -29.1097 -29.0548 -10.9150  -7.9668  -3.9906  -2.4970  -1.7834   0.7474
     2.1741   2.6953   4.6895   5.1254

     occupation numbers 
     1.0000   1.0000   1.0000   1.0000   1.0000   1.0000   1.0000   1.0000
     1.0000   1.0000   1.0000   1.0000   1.0000   1.0000   1.0000   0.0000
     0.0000   0.0000   0.0000   0.0000

          k = 0.0667 0.5004 0.0000 ( 11227 PWs)   bands (ev):

   -29.3329 -29.2696 -29.2368 -29.2066 -29.1858 -29.1807 -29.1567 -29.1484
   -29.1123 -29.0554 -10.4856  -8.4416  -3.9488  -2.5928  -2.1512   0.9691
     1.7786   2.7116   4.4421   5.7286

     occupation numbers 
     1.0000   1.0000   1.0000   1.0000   1.0000   1.0000   1.0000   1.0000
     1.0000   1.0000   1.0000   1.0000   1.0000   1.0000   1.0000   0.0000
     0.0000   0.0000   0.0000   0.0000

          k = 0.0667 0.5774 0.0000 ( 11218 PWs)   bands (ev):

   -29.3325 -29.2675 -29.2287 -29.1958 -29.1949 -29.1826 -29.1571 -29.1568
   -29.1130 -29.0556 -10.2668  -8.6850  -3.9009  -2.5664  -2.3672   1.1578
     1.5456   2.7204   4.3173   6.3204

     occupation numbers 
     1.0000   1.0000   1.0000   1.0000   1.0000   1.0000   1.0000   1.0000
     1.0000   1.0000   1.0000   1.0000   1.0000   1.0000   1.0000   0.0000
     0.0000   0.0000   0.0000   0.0000

          k = 0.1333 0.2309 0.0000 ( 11243 PWs)   bands (ev):

   -29.3379 -29.3124 -29.2538 -29.2423 -29.2060 -29.1523 -29.1399 -29.1102
   -29.0844 -29.0532 -11.7719  -7.2620  -3.2228  -2.1201  -1.3347   1.4326
     2.0726   3.1268   4.2367   4.3370

     occupation numbers 
     1.0000   1.0000   1.0000   1.0000   1.0000   1.0000   1.0000   1.0000
     1.0000   1.0000   1.0000   1.0000   1.0000   1.0000   1.0000   0.0000
     0.0000   0.0000   0.0000   0.0000

          k = 0.1333 0.3079 0.0000 ( 11233 PWs)   bands (ev):

   -29.3362 -29.2970 -29.2514 -29.2353 -29.1986 -29.1606 -29.1410 -29.1158
   -29.0996 -29.0542 -11.4395  -7.4487  -3.6258  -2.6358  -1.3787   1.2530
     2.1610   3.0348   4.4991   4.6593

     occupation numbers 
     1.0000   1.0000   1.0000   1.0000   1.0000   1.0000   1.0000   1.0000
     1.0000   1.0000   1.0000   1.0000   1.0000   1.0000   1.0000   0.0000
     0.0000   0.0000   0.0000   0.0000

          k = 0.1333 0.3849 0.0000 ( 11218 PWs)   bands (ev):

   -29.3346 -29.2801 -29.2482 -29.2263 -29.1898 -29.1707 -29.1437 -29.1283
   -29.1101 -29.0553 -11.0328  -7.8001  -3.8500  -2.9630  -1.5834   1.1439
     2.1375   2.8066   4.8213   5.0551

     occupation numbers 
     1.0000   1.0000   1.0000   1.0000   1.0000   1.0000   1.0000   1.0000
     1.0000   1.0000   1.0000   1.0000   1.0000   1.0000   1.0000   0.0000
     0.0000   0.0000   0.0000   0.0000

          k = 0.1333 0.4619 0.0000 ( 11215 PWs)   bands (ev):

   -29.3333 -29.2667 -29.2407 -29.2159 -29.1843 -29.1796 -29.1501 -29.1441
   -29.1144 -29.0562 -10.5869  -8.2653  -3.9370  -3.0530  -1.9343   1.2017
     2.0157   2.6197   4.7715   5.5594

     occupation numbers 
     1.0000   1.0000   1.0000   1.0000   1.0000   1.0000   1.0000   1.0000
     1.0000   1.0000   1.0000   1.0000   1.0000   1.0000   1.0000   0.0000
     0.0000   0.0000   0.0000   0.0000

          k = 0.1333 0.5389 0.0000 ( 11215 PWs)   bands (ev):

   -29.3326 -29.2617 -29.2282 -29.2056 -29.1954 -29.1773 -29.1595 -29.1510
   -29.1161 -29.0567 -10.2156  -8.6682  -3.9717  -2.9393  -2.2860   1.3208
     1.8862   2.5373   4.5612   6.2124

     occupation numbers 
     1.0000   1.0000   1.0000   1.0000   1.0000   1.0000   1.0000   1.0000
     1.0000   1.0000   1.0000   1.0000   1.0000   1.0000   1.0000   0.0000
     0.0000   0.0000   0.0000   0.0000

          k = 0.2000 0.3464 0.0000 ( 11221 PWs)   bands (ev):

   -29.3348 -29.2807 -29.2475 -29.2300 -29.1897 -29.1707 -29.1413 -29.1265
   -29.1105 -29.0556 -11.0729  -7.7387  -3.6772  -3.2708  -1.5129   1.5242
     1.7284   3.1758   4.8222   5.0265

     occupation numbers 
     1.0000   1.0000   1.0000   1.0000   1.0000   1.0000   1.0000   1.0000
     1.0000   1.0000   1.0000   1.0000   1.0000   1.0000   1.0000   0.0000
     0.0000   0.0000   0.0000   0.0000

          k = 0.2000 0.4234 0.0000 ( 11221 PWs)   bands (ev):

   -29.3335 -29.2639 -29.2428 -29.2223 -29.1829 -29.1801 -29.1444 -29.1419
   -29.1167 -29.0569 -10.6436  -8.1491  -3.8219  -3.4668  -1.7835   1.3141
     1.8288   3.1301   5.1374   5.5013

     occupation numbers 
     1.0000   1.0000   1.0000   1.0000   1.0000   1.0000   1.0000   1.0000
     1.0000   1.0000   1.0000   1.0000   1.0000   1.0000   1.0000   0.0000
     0.0000   0.0000   0.0000   0.0000

          k = 0.2000 0.5004 0.0000 ( 11215 PWs)   bands (ev):

   -29.3327 -29.2536 -29.2324 -29.2127 -29.1959 -29.1733 -29.1607 -29.1447
   -29.1202 -29.0578 -10.2044  -8.6005  -4.0949  -3.2160  -2.1424   1.0779
     2.1590   2.8833   5.0776   6.0771

     occupation numbers 
     1.0000   1.0000   1.0000   1.0000   1.0000   1.0000   1.0000   1.0000
     1.0000   1.0000   1.0000   1.0000   1.0000   1.0000   1.0000   0.0000
     0.0000   0.0000   0.0000   0.0000

          k = 0.2000 0.5774 0.0000 ( 11230 PWs)   bands (ev):

   -29.3323 -29.2515 -29.2213 -29.2092 -29.2034 -29.1754 -29.1645 -29.1463
   -29.1214 -29.0582  -9.9607  -8.8530  -4.1894  -3.0193  -2.3750   0.9991
     2.5144   2.5520   4.9912   6.3963

     occupation numbers 
     1.0000   1.0000   1.0000   1.0000   1.0000   1.0000   1.0000   1.0000
     1.0000   1.0000   1.0000   1.0000   1.0000   1.0000   1.0000   0.0000
     0.0000   0.0000   0.0000   0.0000

          k = 0.2667 0.4619 0.0000 ( 11231 PWs)   bands (ev):

   -29.3327 -29.2473 -29.2378 -29.2148 -29.1960 -29.1718 -29.1610 -29.1415
   -29.1226 -29.0583 -10.2050  -8.5643  -4.1597  -3.3073  -2.0709   0.9619
     2.1418   3.2073   5.7216   5.9602

     occupation numbers 
     1.0000   1.0000   1.0000   1.0000   1.0000   1.0000   1.0000   1.0000
     1.0000   1.0000   1.0000   1.0000   1.0000   1.0000   1.0000   0.0000
     0.0000   0.0000   0.0000   0.0000

          k = 0.2667 0.5389 0.0000 ( 11230 PWs)   bands (ev):

   -29.3322 -29.2396 -29.2269 -29.2108 -29.2039 -29.1770 -29.1663 -29.1403
   -29.1269 -29.0591  -9.7899  -8.9695  -4.3902  -2.9918  -2.3921   0.7282
     2.5327   2.9947   5.8217   6.0543

     occupation numbers 
     1.0000   1.0000   1.0000   1.0000   1.0000   1.0000   1.0000   1.0000
     1.0000   1.0000   1.0000   1.0000   1.0000   1.0000   1.0000   0.0000
     0.0000   0.0000   0.0000   0.0000

          k = 0.3333 0.5774 0.0000 ( 11256 PWs)   bands (ev):

   -29.3321 -29.2265 -29.2245 -29.2245 -29.1915 -29.1914 -29.1648 -29.1340
   -29.1340 -29.0596  -9.3703  -9.3703  -4.5115  -2.6836  -2.6836   0.5856
     2.8458   2.8458   5.8867   6.7406

     occupation numbers 
     1.0000   1.0000   1.0000   1.0000   1.0000   1.0000   1.0000   1.0000
     1.0000   1.0000   1.0000   1.0000   1.0000   1.0000   1.0000   0.0000
     0.0000   0.0000   0.0000   0.0000

     highest occupied, lowest unoccupied level (ev):    -0.7019    0.4459

!    total energy              =    -369.17580791 Ry
     estimated scf accuracy    <       0.00000013 Ry

     The total energy is the sum of the following terms:
     one-electron contribution =    -811.14834196 Ry
     hartree contribution      =     411.01820480 Ry
     xc contribution           =     -87.07359719 Ry
     ewald contribution        =     118.02792644 Ry

     convergence has been achieved in   4 iterations

     negative rho (up, down):  3.516E-06 0.000E+00

     Forces acting on atoms (cartesian axes, Ry/au):

     atom    1 type  1   force =     0.00000000    0.00000000    0.00028999
     atom    2 type  1   force =     0.00000000    0.00000000   -0.00028999
     The non-local contrib.  to forces
     atom    1 type  1   force =    -0.00000000   -0.00000000    0.51004833
     atom    2 type  1   force =    -0.00000000   -0.00000000   -0.51000811
     The ionic contribution  to forces
     atom    1 type  1   force =    -0.00000001    0.00000001  -36.38163245
     atom    2 type  1   force =     0.00000001   -0.00000001   36.38163245
     The local contribution  to forces
     atom    1 type  1   force =    -0.00000000   -0.00000000   35.86942082
     atom    2 type  1   force =     0.00000040   -0.00000023  -35.86953625
     The core correction contribution to forces
     atom    1 type  1   force =    -0.00000000    0.00000000    0.00119782
     atom    2 type  1   force =     0.00000003   -0.00000002   -0.00120379
     The Hubbard contrib.    to forces
     atom    1 type  1   force =     0.00000000    0.00000000    0.00000000
     atom    2 type  1   force =     0.00000000    0.00000000    0.00000000
     The SCF correction term to forces
     atom    1 type  1   force =    -0.00000000    0.00000000    0.00000000
     atom    2 type  1   force =     0.00000000   -0.00000000   -0.00111875

     Total force =     0.000290     Total SCF correction =     0.001119
     SCF correction compared to forces is large: reduce conv_thr to get better values


     Computing stress (Cartesian axis) and pressure


     negative rho (up, down):  3.516E-06 0.000E+00
          total   stress  (Ry/bohr**3)                   (kbar)     P=       -0.95
  -0.00000612  -0.00000000   0.00000000           -0.90       -0.00        0.00
  -0.00000000  -0.00000612   0.00000000           -0.00       -0.90        0.00
   0.00000000   0.00000000  -0.00000718            0.00        0.00       -1.06

     kinetic stress (kbar)   4883.13      0.00      0.00
                               -0.00   4883.13      0.00
                               -0.00     -0.00   4908.75

     local   stress (kbar) -64821.87      0.00     -0.00
                                0.00 -64821.87      0.00
                               -0.00      0.00  65575.81

     nonloc. stress (kbar)     42.46      0.00      0.00
                               -0.00     42.46      0.00
                                0.00      0.00     61.19

     hartree stress (kbar)  35113.32      0.00      0.00
                                0.00  35113.32     -0.00
                                0.00     -0.00 -27994.24

     exc-cor stress (kbar)   2972.96     -0.00      0.00
                               -0.00   2972.96     -0.00
                                0.00     -0.00   2972.04

     corecor stress (kbar)  -4677.77      0.00      0.00
                                0.00  -4677.77     -0.00
                                0.00     -0.00  -4678.31

     ewald   stress (kbar)  26486.87     -0.00      0.00
                               -0.00  26486.87     -0.00
                                0.00     -0.00 -40846.29

     hubbard stress (kbar)      0.00      0.00      0.00
                                0.00      0.00      0.00
                                0.00      0.00      0.00

     DFT-D   stress (kbar)      0.00      0.00      0.00
                                0.00      0.00      0.00
                                0.00      0.00      0.00

     XDM     stress (kbar)      0.00      0.00      0.00
                                0.00      0.00      0.00
                                0.00      0.00      0.00

     dft-nl  stress (kbar)      0.00      0.00      0.00
                                0.00      0.00      0.00
                                0.00      0.00      0.00

     TS-vdW  stress (kbar)      0.00      0.00      0.00
                                0.00      0.00      0.00
                                0.00      0.00      0.00


     Energy error            =      1.2E-07
     Gradient error          =      2.9E-04
     Cell gradient error     =      6.1E-06


     number of scf cycles    =   2
     number of bfgs steps    =   1

     enthalpy old            =    -369.1758077915 Ry
     enthalpy new            =    -369.1758079140 Ry

     CASE: enthalpy_new < enthalpy_old


     WARNING: bfgs curvature condition failed, Theta= 0.427
     small trust_radius: resetting bfgs history

     new trust radius        =       0.0001000000 bohr
     new conv_thr            =       0.0000000100 Ry

     new unit-cell volume =   1431.63225 a.u.^3 (   212.14601 Ang^3 )
     density =      0.18803 g/cm^3

CELL_PARAMETERS (alat=  7.63695019)
   0.999966382  -0.000000000   0.000000000
  -0.499983191   0.865996290   0.000000000
   0.000000000   0.000000000   3.711676936

ATOMIC_POSITIONS (crystal)
Sb            0.0000000000        0.0000000000        0.5000000000    0   0   0
Sb            0.3333333330        0.6666666670        0.6091100125



     Writing output data file ./tmp/Sb.save/
     NEW-OLD atomic charge density approx. for the potential

     negative rho (up, down):  3.709E-06 0.000E+00
     extrapolated charge   29.99926, renormalised to   30.00000

     total cpu time spent up to now is       44.3 secs

     Self-consistent Calculation

     iteration #  1     ecut=    60.00 Ry     beta= 0.70
     Davidson diagonalization with overlap
     ethr =  1.00E-06,  avg # of iterations =  2.0

     Threshold (ethr) on eigenvalues was too large:
     Diagonalizing with lowered threshold

     Davidson diagonalization with overlap
     ethr =  3.03E-09,  avg # of iterations =  1.1

     negative rho (up, down):  3.612E-06 0.000E+00

     total cpu time spent up to now is       49.2 secs

     total energy              =    -369.17580712 Ry
     estimated scf accuracy    <       0.00000093 Ry

     iteration #  2     ecut=    60.00 Ry     beta= 0.70
     Davidson diagonalization with overlap
     ethr =  3.09E-09,  avg # of iterations =  2.7

     negative rho (up, down):  3.557E-06 0.000E+00

     total cpu time spent up to now is       52.4 secs

     total energy              =    -369.17580786 Ry
     estimated scf accuracy    <       0.00000105 Ry

     iteration #  3     ecut=    60.00 Ry     beta= 0.70
     Davidson diagonalization with overlap
     ethr =  3.09E-09,  avg # of iterations =  2.0

     negative rho (up, down):  3.543E-06 0.000E+00

     total cpu time spent up to now is       55.2 secs

     total energy              =    -369.17580797 Ry
     estimated scf accuracy    <       0.00000007 Ry

     iteration #  4     ecut=    60.00 Ry     beta= 0.70
     Davidson diagonalization with overlap
     ethr =  2.48E-10,  avg # of iterations =  1.6

     negative rho (up, down):  3.537E-06 0.000E+00

     total cpu time spent up to now is       57.8 secs

     total energy              =    -369.17580797 Ry
     estimated scf accuracy    <       0.00000004 Ry

     iteration #  5     ecut=    60.00 Ry     beta= 0.70
     Davidson diagonalization with overlap
     ethr =  1.17E-10,  avg # of iterations =  1.0

     negative rho (up, down):  3.534E-06 0.000E+00

     total cpu time spent up to now is       60.2 secs

     total energy              =    -369.17580796 Ry
     estimated scf accuracy    <       0.00000002 Ry

     iteration #  6     ecut=    60.00 Ry     beta= 0.70
     Davidson diagonalization with overlap
     ethr =  5.80E-11,  avg # of iterations =  1.0

     negative rho (up, down):  3.530E-06 0.000E+00

     total cpu time spent up to now is       62.6 secs

     total energy              =    -369.17580796 Ry
     estimated scf accuracy    <       0.00000001 Ry

     iteration #  7     ecut=    60.00 Ry     beta= 0.70
     Davidson diagonalization with overlap
     ethr =  4.19E-11,  avg # of iterations =  1.4

     negative rho (up, down):  3.524E-06 0.000E+00

     total cpu time spent up to now is       64.9 secs

     End of self-consistent calculation

          k = 0.0000 0.0000 0.0000 ( 11241 PWs)   bands (ev):

   -29.3441 -29.3441 -29.2603 -29.2603 -29.2197 -29.1408 -29.1408 -29.1050
   -29.0536 -29.0536 -12.3657  -7.2109  -1.5195  -0.7034  -0.7034   0.9739
     2.1199   2.1199   3.6543   3.6897

     occupation numbers 
     1.0000   1.0000   1.0000   1.0000   1.0000   1.0000   1.0000   1.0000
     1.0000   1.0000   1.0000   1.0000   1.0000   1.0000   1.0000   0.0000
     0.0000   0.0000   0.0000   0.0000

          k = 0.0000 0.0770 0.0000 ( 11265 PWs)   bands (ev):

   -29.3438 -29.3416 -29.2600 -29.2587 -29.2189 -29.1419 -29.1409 -29.1056
   -29.0566 -29.0538 -12.3154  -7.2022  -1.4942  -1.2553  -0.8263   1.3802
     2.0200   2.2379   3.7104   3.7615

     occupation numbers 
     1.0000   1.0000   1.0000   1.0000   1.0000   1.0000   1.0000   1.0000
     1.0000   1.0000   1.0000   1.0000   1.0000   1.0000   1.0000   0.0000
     0.0000   0.0000   0.0000   0.0000

          k = 0.0000 0.1540 0.0000 ( 11295 PWs)   bands (ev):

   -29.3427 -29.3340 -29.2593 -29.2540 -29.2163 -29.1451 -29.1415 -29.1075
   -29.0655 -29.0542 -12.1657  -7.1897  -2.1867  -1.4303  -1.1223   1.2675
     2.4354   2.4978   3.8577   3.9716

     occupation numbers 
     1.0000   1.0000   1.0000   1.0000   1.0000   1.0000   1.0000   1.0000
     1.0000   1.0000   1.0000   1.0000   1.0000   1.0000   1.0000   0.0000
     0.0000   0.0000   0.0000   0.0000

          k = 0.0000 0.2309 0.0000 ( 11284 PWs)   bands (ev):

   -29.3410 -29.3220 -29.2584 -29.2465 -29.2118 -29.1504 -29.1427 -29.1105
   -29.0793 -29.0549 -11.9195  -7.2202  -3.0510  -1.4735  -1.3750   0.8112
     2.7371   2.8267   4.0528   4.2272

     occupation numbers 
     1.0000   1.0000   1.0000   1.0000   1.0000   1.0000   1.0000   1.0000
     1.0000   1.0000   1.0000   1.0000   1.0000   1.0000   1.0000   0.0000
     0.0000   0.0000   0.0000   0.0000

          k = 0.0000 0.3079 0.0000 ( 11260 PWs)   bands (ev):

   -29.3391 -29.3065 -29.2571 -29.2368 -29.2054 -29.1576 -29.1453 -29.1153
   -29.0957 -29.0557 -11.5841  -7.3753  -3.6823  -1.8038  -1.4293   0.4915
     2.6881   2.8667   4.3268   4.5137

     occupation numbers 
     1.0000   1.0000   1.0000   1.0000   1.0000   1.0000   1.0000   1.0000
     1.0000   1.0000   1.0000   1.0000   1.0000   1.0000   1.0000   0.0000
     0.0000   0.0000   0.0000   0.0000

          k = 0.0000 0.3849 0.0000 ( 11232 PWs)   bands (ev):

   -29.3373 -29.2899 -29.2541 -29.2255 -29.1976 -29.1665 -29.1500 -29.1263
   -29.1081 -29.0565 -11.1745  -7.7198  -3.9863  -2.0735  -1.6816   0.4447
     2.2897   2.8960   4.6545   4.8164

     occupation numbers 
     1.0000   1.0000   1.0000   1.0000   1.0000   1.0000   1.0000   1.0000
     1.0000   1.0000   1.0000   1.0000   1.0000   1.0000   1.0000   0.0000
     0.0000   0.0000   0.0000   0.0000

          k = 0.0000 0.4619 0.0000 ( 11222 PWs)   bands (ev):

   -29.3358 -29.2774 -29.2462 -29.2133 -29.1904 -29.1769 -29.1571 -29.1430
   -29.1125 -29.0571 -10.7292  -8.1976  -4.0054  -2.2620  -2.0480   0.6069
     1.9039   2.8782   4.4867   5.3565

     occupation numbers 
     1.0000   1.0000   1.0000   1.0000   1.0000   1.0000   1.0000   1.0000
     1.0000   1.0000   1.0000   1.0000   1.0000   1.0000   1.0000   0.0000
     0.0000   0.0000   0.0000   0.0000

          k = 0.0000 0.5389 0.0000 ( 11222 PWs)   bands (ev):

   -29.3350 -29.2725 -29.2346 -29.2008 -29.1885 -29.1884 -29.1618 -29.1555
   -29.1140 -29.0575 -10.3678  -8.6042  -3.9121  -2.3585  -2.3319   0.8029
     1.6368   2.8581   4.2850   5.9773

     occupation numbers 
     1.0000   1.0000   1.0000   1.0000   1.0000   1.0000   1.0000   1.0000
     1.0000   1.0000   1.0000   1.0000   1.0000   1.0000   1.0000   0.0000
     0.0000   0.0000   0.0000   0.0000

          k = 0.0667 0.1155 0.0000 ( 11283 PWs)   bands (ev):

   -29.3430 -29.3365 -29.2594 -29.2557 -29.2172 -29.1441 -29.1412 -29.1069
   -29.0626 -29.0541 -12.2154  -7.1913  -1.9070  -1.4499  -1.0938   1.7429
     1.7711   2.5891   3.8158   3.9020

     occupation numbers 
     1.0000   1.0000   1.0000   1.0000   1.0000   1.0000   1.0000   1.0000
     1.0000   1.0000   1.0000   1.0000   1.0000   1.0000   1.0000   0.0000
     0.0000   0.0000   0.0000   0.0000

          k = 0.0667 0.1925 0.0000 ( 11279 PWs)   bands (ev):

   -29.3417 -29.3267 -29.2582 -29.2501 -29.2135 -29.1486 -29.1418 -29.1093
   -29.0739 -29.0547 -12.0173  -7.1989  -2.7070  -1.5293  -1.3692   1.3150
     2.2057   2.9572   4.0013   4.1345

     occupation numbers 
     1.0000   1.0000   1.0000   1.0000   1.0000   1.0000   1.0000   1.0000
     1.0000   1.0000   1.0000   1.0000   1.0000   1.0000   1.0000   0.0000
     0.0000   0.0000   0.0000   0.0000

          k = 0.0667 0.2694 0.0000 ( 11261 PWs)   bands (ev):

   -29.3400 -29.3128 -29.2569 -29.2421 -29.2078 -29.1552 -29.1433 -29.1132
   -29.0892 -29.0555 -11.7260  -7.2890  -3.4045  -1.9329  -1.3528   0.9052
     2.5220   2.9675   4.2196   4.3987

     occupation numbers 
     1.0000   1.0000   1.0000   1.0000   1.0000   1.0000   1.0000   1.0000
     1.0000   1.0000   1.0000   1.0000   1.0000   1.0000   1.0000   0.0000
     0.0000   0.0000   0.0000   0.0000

          k = 0.0667 0.3464 0.0000 ( 11227 PWs)   bands (ev):

   -29.3381 -29.2962 -29.2550 -29.2321 -29.2002 -29.1636 -29.1463 -29.1205
   -29.1045 -29.0564 -11.3514  -7.5418  -3.8461  -2.2682  -1.4782   0.6950
     2.6097   2.6596   4.5556   4.7262

     occupation numbers 
     1.0000   1.0000   1.0000   1.0000   1.0000   1.0000   1.0000   1.0000
     1.0000   1.0000   1.0000   1.0000   1.0000   1.0000   1.0000   0.0000
     0.0000   0.0000   0.0000   0.0000

          k = 0.0667 0.4234 0.0000 ( 11216 PWs)   bands (ev):

   -29.3364 -29.2807 -29.2501 -29.2209 -29.1920 -29.1736 -29.1517 -29.1358
   -29.1120 -29.0572 -10.9168  -7.9683  -3.9920  -2.4985  -1.7845   0.7463
     2.1730   2.6943   4.6889   5.1254

     occupation numbers 
     1.0000   1.0000   1.0000   1.0000   1.0000   1.0000   1.0000   1.0000
     1.0000   1.0000   1.0000   1.0000   1.0000   1.0000   1.0000   0.0000
     0.0000   0.0000   0.0000   0.0000

          k = 0.0667 0.5004 0.0000 ( 11227 PWs)   bands (ev):

   -29.3353 -29.2720 -29.2392 -29.2090 -29.1881 -29.1830 -29.1590 -29.1507
   -29.1146 -29.0578 -10.4873  -8.4432  -3.9501  -2.5942  -2.1524   0.9679
     1.7776   2.7105   4.4415   5.7286

     occupation numbers 
     1.0000   1.0000   1.0000   1.0000   1.0000   1.0000   1.0000   1.0000
     1.0000   1.0000   1.0000   1.0000   1.0000   1.0000   1.0000   0.0000
     0.0000   0.0000   0.0000   0.0000

          k = 0.0667 0.5774 0.0000 ( 11218 PWs)   bands (ev):

   -29.3349 -29.2699 -29.2311 -29.1982 -29.1973 -29.1850 -29.1594 -29.1591
   -29.1153 -29.0580 -10.2685  -8.6865  -3.9022  -2.5679  -2.3683   1.1566
     1.5447   2.7194   4.3166   6.3203

     occupation numbers 
     1.0000   1.0000   1.0000   1.0000   1.0000   1.0000   1.0000   1.0000
     1.0000   1.0000   1.0000   1.0000   1.0000   1.0000   1.0000   0.0000
     0.0000   0.0000   0.0000   0.0000

          k = 0.1333 0.2309 0.0000 ( 11243 PWs)   bands (ev):

   -29.3403 -29.3148 -29.2561 -29.2447 -29.2084 -29.1547 -29.1422 -29.1125
   -29.0868 -29.0555 -11.7736  -7.2632  -3.2242  -2.1216  -1.3356   1.4315
     2.0714   3.1258   4.2368   4.3369

     occupation numbers 
     1.0000   1.0000   1.0000   1.0000   1.0000   1.0000   1.0000   1.0000
     1.0000   1.0000   1.0000   1.0000   1.0000   1.0000   1.0000   0.0000
     0.0000   0.0000   0.0000   0.0000

          k = 0.1333 0.3079 0.0000 ( 11233 PWs)   bands (ev):

   -29.3386 -29.2994 -29.2538 -29.2377 -29.2010 -29.1630 -29.1434 -29.1181
   -29.1020 -29.0566 -11.4413  -7.4500  -3.6272  -2.6373  -1.3797   1.2520
     2.1599   3.0337   4.4989   4.6593

     occupation numbers 
     1.0000   1.0000   1.0000   1.0000   1.0000   1.0000   1.0000   1.0000
     1.0000   1.0000   1.0000   1.0000   1.0000   1.0000   1.0000   0.0000
     0.0000   0.0000   0.0000   0.0000

          k = 0.1333 0.3849 0.0000 ( 11218 PWs)   bands (ev):

   -29.3370 -29.2825 -29.2506 -29.2287 -29.1922 -29.1731 -29.1460 -29.1307
   -29.1125 -29.0577 -11.0345  -7.8016  -3.8514  -2.9645  -1.5845   1.1428
     2.1365   2.8055   4.8209   5.0551

     occupation numbers 
     1.0000   1.0000   1.0000   1.0000   1.0000   1.0000   1.0000   1.0000
     1.0000   1.0000   1.0000   1.0000   1.0000   1.0000   1.0000   0.0000
     0.0000   0.0000   0.0000   0.0000

          k = 0.1333 0.4619 0.0000 ( 11215 PWs)   bands (ev):

   -29.3357 -29.2691 -29.2431 -29.2182 -29.1867 -29.1819 -29.1525 -29.1464
   -29.1168 -29.0586 -10.5886  -8.2668  -3.9383  -3.0544  -1.9354   1.2007
     2.0146   2.6186   4.7708   5.5593

     occupation numbers 
     1.0000   1.0000   1.0000   1.0000   1.0000   1.0000   1.0000   1.0000
     1.0000   1.0000   1.0000   1.0000   1.0000   1.0000   1.0000   0.0000
     0.0000   0.0000   0.0000   0.0000

          k = 0.1333 0.5389 0.0000 ( 11215 PWs)   bands (ev):

   -29.3350 -29.2641 -29.2306 -29.2080 -29.1978 -29.1797 -29.1618 -29.1533
   -29.1185 -29.0591 -10.2173  -8.6698  -3.9731  -2.9407  -2.2872   1.3198
     1.8851   2.5364   4.5605   6.2123

     occupation numbers 
     1.0000   1.0000   1.0000   1.0000   1.0000   1.0000   1.0000   1.0000
     1.0000   1.0000   1.0000   1.0000   1.0000   1.0000   1.0000   0.0000
     0.0000   0.0000   0.0000   0.0000

          k = 0.2000 0.3464 0.0000 ( 11221 PWs)   bands (ev):

   -29.3372 -29.2831 -29.2499 -29.2324 -29.1921 -29.1731 -29.1437 -29.1289
   -29.1129 -29.0580 -11.0746  -7.7401  -3.6785  -3.2723  -1.5140   1.5232
     1.7273   3.1746   4.8216   5.0265

     occupation numbers 
     1.0000   1.0000   1.0000   1.0000   1.0000   1.0000   1.0000   1.0000
     1.0000   1.0000   1.0000   1.0000   1.0000   1.0000   1.0000   0.0000
     0.0000   0.0000   0.0000   0.0000

          k = 0.2000 0.4234 0.0000 ( 11221 PWs)   bands (ev):

   -29.3359 -29.2663 -29.2452 -29.2247 -29.1853 -29.1825 -29.1467 -29.1443
   -29.1190 -29.0593 -10.6453  -8.1506  -3.8234  -3.4681  -1.7846   1.3130
     1.8278   3.1290   5.1366   5.5013

     occupation numbers 
     1.0000   1.0000   1.0000   1.0000   1.0000   1.0000   1.0000   1.0000
     1.0000   1.0000   1.0000   1.0000   1.0000   1.0000   1.0000   0.0000
     0.0000   0.0000   0.0000   0.0000

          k = 0.2000 0.5004 0.0000 ( 11215 PWs)   bands (ev):

   -29.3351 -29.2560 -29.2348 -29.2150 -29.1982 -29.1757 -29.1630 -29.1470
   -29.1226 -29.0602 -10.2061  -8.6020  -4.0964  -3.2173  -2.1435   1.0769
     2.1580   2.8823   5.0767   6.0771

     occupation numbers 
     1.0000   1.0000   1.0000   1.0000   1.0000   1.0000   1.0000   1.0000
     1.0000   1.0000   1.0000   1.0000   1.0000   1.0000   1.0000   0.0000
     0.0000   0.0000   0.0000   0.0000

          k = 0.2000 0.5774 0.0000 ( 11230 PWs)   bands (ev):

   -29.3347 -29.2539 -29.2236 -29.2116 -29.2058 -29.1777 -29.1669 -29.1486
   -29.1238 -29.0605  -9.9624  -8.8546  -4.1909  -3.0205  -2.3761   0.9981
     2.5136   2.5510   4.9903   6.3959

     occupation numbers 
     1.0000   1.0000   1.0000   1.0000   1.0000   1.0000   1.0000   1.0000
     1.0000   1.0000   1.0000   1.0000   1.0000   1.0000   1.0000   0.0000
     0.0000   0.0000   0.0000   0.0000

          k = 0.2667 0.4619 0.0000 ( 11231 PWs)   bands (ev):

   -29.3351 -29.2497 -29.2402 -29.2172 -29.1984 -29.1742 -29.1634 -29.1439
   -29.1249 -29.0607 -10.2067  -8.5658  -4.1613  -3.3085  -2.0720   0.9608
     2.1410   3.2063   5.7207   5.9599

     occupation numbers 
     1.0000   1.0000   1.0000   1.0000   1.0000   1.0000   1.0000   1.0000
     1.0000   1.0000   1.0000   1.0000   1.0000   1.0000   1.0000   0.0000
     0.0000   0.0000   0.0000   0.0000

          k = 0.2667 0.5389 0.0000 ( 11230 PWs)   bands (ev):

   -29.3346 -29.2420 -29.2293 -29.2132 -29.2063 -29.1794 -29.1686 -29.1427
   -29.1293 -29.0615  -9.7916  -8.9711  -4.3918  -2.9930  -2.3932   0.7271
     2.5318   2.9938   5.8208   6.0539

     occupation numbers 
     1.0000   1.0000   1.0000   1.0000   1.0000   1.0000   1.0000   1.0000
     1.0000   1.0000   1.0000   1.0000   1.0000   1.0000   1.0000   0.0000
     0.0000   0.0000   0.0000   0.0000

          k = 0.3333 0.5774 0.0000 ( 11256 PWs)   bands (ev):

   -29.3345 -29.2289 -29.2269 -29.2269 -29.1938 -29.1938 -29.1672 -29.1364
   -29.1363 -29.0620  -9.3719  -9.3719  -4.5131  -2.6848  -2.6848   0.5846
     2.8449   2.8449   5.8863   6.7398

     occupation numbers 
     1.0000   1.0000   1.0000   1.0000   1.0000   1.0000   1.0000   1.0000
     1.0000   1.0000   1.0000   1.0000   1.0000   1.0000   1.0000   0.0000
     0.0000   0.0000   0.0000   0.0000

     highest occupied, lowest unoccupied level (ev):    -0.7034    0.4447

!    total energy              =    -369.17580796 Ry
     estimated scf accuracy    <          4.4E-09 Ry

     The total energy is the sum of the following terms:
     one-electron contribution =    -811.16835633 Ry
     hartree contribution      =     411.03090263 Ry
     xc contribution           =     -87.07400528 Ry
     ewald contribution        =     118.03565103 Ry

     convergence has been achieved in   7 iterations

     negative rho (up, down):  3.524E-06 0.000E+00

     Forces acting on atoms (cartesian axes, Ry/au):

     atom    1 type  1   force =     0.00000000    0.00000000   -0.00012644
     atom    2 type  1   force =    -0.00000000   -0.00000000    0.00012644
     The non-local contrib.  to forces
     atom    1 type  1   force =     0.00000000    0.00000000    0.50966950
     atom    2 type  1   force =     0.00000000    0.00000000   -0.50967004
     The ionic contribution  to forces
     atom    1 type  1   force =    -0.00000001    0.00000001  -36.38279011
     atom    2 type  1   force =     0.00000001   -0.00000001   36.38279011
     The local contribution  to forces
     atom    1 type  1   force =     0.00000000   -0.00000000   35.87152928
     atom    2 type  1   force =     0.00000040   -0.00000023  -35.87152753
     The core correction contribution to forces
     atom    1 type  1   force =    -0.00000000    0.00000000    0.00121863
     atom    2 type  1   force =     0.00000003   -0.00000002   -0.00122137
     The Hubbard contrib.    to forces
     atom    1 type  1   force =     0.00000000    0.00000000    0.00000000
     atom    2 type  1   force =     0.00000000    0.00000000    0.00000000
     The SCF correction term to forces
     atom    1 type  1   force =     0.00000000   -0.00000000    0.00000000
     atom    2 type  1   force =     0.00000000   -0.00000000   -0.00024739

     Total force =     0.000126     Total SCF correction =     0.000247
     SCF correction compared to forces is large: reduce conv_thr to get better values


     Computing stress (Cartesian axis) and pressure


     negative rho (up, down):  3.524E-06 0.000E+00
          total   stress  (Ry/bohr**3)                   (kbar)     P=       -0.16
  -0.00000088  -0.00000000   0.00000000           -0.13       -0.00        0.00
  -0.00000000  -0.00000088   0.00000000           -0.00       -0.13        0.00
   0.00000000   0.00000000  -0.00000142            0.00        0.00       -0.21

     kinetic stress (kbar)   4883.28     -0.00      0.00
                               -0.00   4883.28      0.00
                                0.00      0.00   4908.92

     local   stress (kbar) -64825.83      0.00     -0.00
                                0.00 -64825.83      0.00
                               -0.00      0.00  65580.11

     nonloc. stress (kbar)     43.19     -0.00      0.00
                               -0.00     43.19      0.00
                               -0.00     -0.00     61.90

     hartree stress (kbar)  35115.56      0.00      0.00
                                0.00  35115.56     -0.00
                                0.00     -0.00 -27996.30

     exc-cor stress (kbar)   2973.04     -0.00      0.00
                               -0.00   2973.04     -0.00
                                0.00     -0.00   2972.12

     corecor stress (kbar)  -4677.90      0.00      0.00
                                0.00  -4677.90     -0.00
                                0.00     -0.00  -4678.44

     ewald   stress (kbar)  26488.54     -0.00      0.00
                               -0.00  26488.54     -0.00
                                0.00     -0.00 -40848.52

     hubbard stress (kbar)      0.00      0.00      0.00
                                0.00      0.00      0.00
                                0.00      0.00      0.00

     DFT-D   stress (kbar)      0.00      0.00      0.00
                                0.00      0.00      0.00
                                0.00      0.00      0.00

     XDM     stress (kbar)      0.00      0.00      0.00
                                0.00      0.00      0.00
                                0.00      0.00      0.00

     dft-nl  stress (kbar)      0.00      0.00      0.00
                                0.00      0.00      0.00
                                0.00      0.00      0.00

     TS-vdW  stress (kbar)      0.00      0.00      0.00
                                0.00      0.00      0.00
                                0.00      0.00      0.00


     Energy error            =      4.5E-08
     Gradient error          =      1.3E-04
     Cell gradient error     =      8.8E-07


     number of scf cycles    =   3
     number of bfgs steps    =   2

     enthalpy old            =    -369.1758079140 Ry
     enthalpy new            =    -369.1758079589 Ry

     CASE: enthalpy_new < enthalpy_old

     new trust radius        =       0.0001793168 bohr
     new conv_thr            =       0.0000000100 Ry

     new unit-cell volume =   1431.61222 a.u.^3 (   212.14304 Ang^3 )
     density =      0.18803 g/cm^3

CELL_PARAMETERS (alat=  7.63695019)
   0.999959388  -0.000000000   0.000000000
  -0.499979694   0.865990232   0.000000000
   0.000000000   0.000000000   3.711676936

ATOMIC_POSITIONS (crystal)
Sb            0.0000000000        0.0000000000        0.5000000000    0   0   0
Sb            0.3333333330        0.6666666670        0.6091163385



     Writing output data file ./tmp/Sb.save/
     NEW-OLD atomic charge density approx. for the potential

     negative rho (up, down):  3.791E-06 0.000E+00
     extrapolated charge   29.99961, renormalised to   30.00000

     total cpu time spent up to now is       71.0 secs

     Self-consistent Calculation

     iteration #  1     ecut=    60.00 Ry     beta= 0.70
     Davidson diagonalization with overlap
     ethr =  1.00E-06,  avg # of iterations =  2.0

     Threshold (ethr) on eigenvalues was too large:
     Diagonalizing with lowered threshold

     Davidson diagonalization with overlap
     ethr =  4.34E-10,  avg # of iterations =  2.0

     negative rho (up, down):  3.601E-06 0.000E+00

     total cpu time spent up to now is       76.7 secs

     total energy              =    -369.17580783 Ry
     estimated scf accuracy    <       0.00000014 Ry

     iteration #  2     ecut=    60.00 Ry     beta= 0.70
     Davidson diagonalization with overlap
     ethr =  4.76E-10,  avg # of iterations =  2.9

     negative rho (up, down):  3.553E-06 0.000E+00

     total cpu time spent up to now is       79.7 secs

     total energy              =    -369.17580792 Ry
     estimated scf accuracy    <       0.00000052 Ry

     iteration #  3     ecut=    60.00 Ry     beta= 0.70
     Davidson diagonalization with overlap
     ethr =  4.76E-10,  avg # of iterations =  2.0

     negative rho (up, down):  3.539E-06 0.000E+00

     total cpu time spent up to now is       82.2 secs

     total energy              =    -369.17580798 Ry
     estimated scf accuracy    <       0.00000016 Ry

     iteration #  4     ecut=    60.00 Ry     beta= 0.70
     Davidson diagonalization with overlap
     ethr =  4.76E-10,  avg # of iterations =  1.5

     negative rho (up, down):  3.534E-06 0.000E+00

     total cpu time spent up to now is       84.6 secs

     total energy              =    -369.17580800 Ry
     estimated scf accuracy    <       0.00000002 Ry

     iteration #  5     ecut=    60.00 Ry     beta= 0.70
     Davidson diagonalization with overlap
     ethr =  5.84E-11,  avg # of iterations =  1.0

     negative rho (up, down):  3.528E-06 0.000E+00

     total cpu time spent up to now is       86.9 secs

     End of self-consistent calculation

          k = 0.0000 0.0000 0.0000 ( 11241 PWs)   bands (ev):

   -29.3438 -29.3438 -29.2600 -29.2600 -29.2193 -29.1405 -29.1405 -29.1047
   -29.0533 -29.0533 -12.3652  -7.2109  -1.5196  -0.7029  -0.7029   0.9744
     2.1203   2.1203   3.6543   3.6897

     occupation numbers 
     1.0000   1.0000   1.0000   1.0000   1.0000   1.0000   1.0000   1.0000
     1.0000   1.0000   1.0000   1.0000   1.0000   1.0000   1.0000   0.0000
     0.0000   0.0000   0.0000   0.0000

          k = 0.0000 0.0770 0.0000 ( 11265 PWs)   bands (ev):

   -29.3434 -29.3412 -29.2597 -29.2584 -29.2185 -29.1415 -29.1406 -29.1053
   -29.0563 -29.0534 -12.3150  -7.2021  -1.4942  -1.2547  -0.8257   1.3807
     2.0203   2.2382   3.7104   3.7616

     occupation numbers 
     1.0000   1.0000   1.0000   1.0000   1.0000   1.0000   1.0000   1.0000
     1.0000   1.0000   1.0000   1.0000   1.0000   1.0000   1.0000   0.0000
     0.0000   0.0000   0.0000   0.0000

          k = 0.0000 0.1540 0.0000 ( 11295 PWs)   bands (ev):

   -29.3423 -29.3337 -29.2590 -29.2537 -29.2160 -29.1448 -29.1411 -29.1072
   -29.0652 -29.0539 -12.1652  -7.1897  -2.1861  -1.4304  -1.1218   1.2678
     2.4357   2.4981   3.8577   3.9717

     occupation numbers 
     1.0000   1.0000   1.0000   1.0000   1.0000   1.0000   1.0000   1.0000
     1.0000   1.0000   1.0000   1.0000   1.0000   1.0000   1.0000   0.0000
     0.0000   0.0000   0.0000   0.0000

          k = 0.0000 0.2309 0.0000 ( 11284 PWs)   bands (ev):

   -29.3407 -29.3216 -29.2580 -29.2462 -29.2115 -29.1501 -29.1424 -29.1102
   -29.0789 -29.0545 -11.9191  -7.2201  -3.0506  -1.4730  -1.3749   0.8115
     2.7374   2.8269   4.0529   4.2272

     occupation numbers 
     1.0000   1.0000   1.0000   1.0000   1.0000   1.0000   1.0000   1.0000
     1.0000   1.0000   1.0000   1.0000   1.0000   1.0000   1.0000   0.0000
     0.0000   0.0000   0.0000   0.0000

          k = 0.0000 0.3079 0.0000 ( 11260 PWs)   bands (ev):

   -29.3388 -29.3062 -29.2567 -29.2365 -29.2050 -29.1573 -29.1450 -29.1150
   -29.0954 -29.0553 -11.5837  -7.3751  -3.6819  -1.8033  -1.4292   0.4917
     2.6883   2.8668   4.3268   4.5138

     occupation numbers 
     1.0000   1.0000   1.0000   1.0000   1.0000   1.0000   1.0000   1.0000
     1.0000   1.0000   1.0000   1.0000   1.0000   1.0000   1.0000   0.0000
     0.0000   0.0000   0.0000   0.0000

          k = 0.0000 0.3849 0.0000 ( 11232 PWs)   bands (ev):

   -29.3369 -29.2895 -29.2538 -29.2252 -29.1973 -29.1662 -29.1497 -29.1260
   -29.1078 -29.0561 -11.1741  -7.7195  -3.9860  -2.0730  -1.6815   0.4449
     2.2899   2.8961   4.6545   4.8165

     occupation numbers 
[...]
   -29.3425 -29.3339 -29.2592 -29.2539 -29.2163 -29.1452 -29.1415 -29.1075
   -29.0656 -29.0543 -12.1645  -7.1907  -2.1846  -1.4315  -1.1200   1.2687
     2.4367   2.4987   3.8582   3.9724

     occupation numbers 
     1.0000   1.0000   1.0000   1.0000   1.0000   1.0000   1.0000   1.0000
     1.0000   1.0000   1.0000   1.0000   1.0000   1.0000   1.0000   0.0000
     0.0000   0.0000   0.0000   0.0000

          k = 0.0000 0.2310 0.0000 ( 11284 PWs)   bands (ev):

   -29.3409 -29.3219 -29.2583 -29.2465 -29.2118 -29.1504 -29.1428 -29.1106
   -29.0793 -29.0549 -11.9184  -7.2209  -3.0493  -1.4713  -1.3759   0.8120
     2.7376   2.8274   4.0533   4.2278

     occupation numbers 
     1.0000   1.0000   1.0000   1.0000   1.0000   1.0000   1.0000   1.0000
     1.0000   1.0000   1.0000   1.0000   1.0000   1.0000   1.0000   0.0000
     0.0000   0.0000   0.0000   0.0000

          k = 0.0000 0.3080 0.0000 ( 11252 PWs)   bands (ev):

   -29.3390 -29.3064 -29.2570 -29.2368 -29.2053 -29.1576 -29.1454 -29.1154
   -29.0958 -29.0557 -11.5829  -7.3755  -3.6812  -1.8016  -1.4300   0.4918
     2.6885   2.8668   4.3270   4.5143

     occupation numbers 
     1.0000   1.0000   1.0000   1.0000   1.0000   1.0000   1.0000   1.0000
     1.0000   1.0000   1.0000   1.0000   1.0000   1.0000   1.0000   0.0000
     0.0000   0.0000   0.0000   0.0000

          k = 0.0000 0.3849 0.0000 ( 11232 PWs)   bands (ev):

   -29.3371 -29.2898 -29.2541 -29.2255 -29.1976 -29.1665 -29.1501 -29.1263
   -29.1082 -29.0565 -11.1733  -7.7194  -3.9858  -2.0713  -1.6821   0.4449
     2.2898   2.8958   4.6544   4.8167

     occupation numbers 
     1.0000   1.0000   1.0000   1.0000   1.0000   1.0000   1.0000   1.0000
     1.0000   1.0000   1.0000   1.0000   1.0000   1.0000   1.0000   0.0000
     0.0000   0.0000   0.0000   0.0000

          k = 0.0000 0.4619 0.0000 ( 11222 PWs)   bands (ev):

   -29.3357 -29.2773 -29.2461 -29.2133 -29.1904 -29.1769 -29.1571 -29.1430
   -29.1126 -29.0572 -10.7280  -8.1968  -4.0053  -2.2598  -2.0484   0.6073
     1.9035   2.8777   4.4863   5.3566

     occupation numbers 
     1.0000   1.0000   1.0000   1.0000   1.0000   1.0000   1.0000   1.0000
     1.0000   1.0000   1.0000   1.0000   1.0000   1.0000   1.0000   0.0000
     0.0000   0.0000   0.0000   0.0000

          k = 0.0000 0.5389 0.0000 ( 11222 PWs)   bands (ev):

   -29.3348 -29.2724 -29.2345 -29.2007 -29.1885 -29.1883 -29.1618 -29.1554
   -29.1141 -29.0575 -10.3665  -8.6033  -3.9122  -2.3564  -2.3324   0.8040
     1.6356   2.8576   4.2845   5.9776

     occupation numbers 
     1.0000   1.0000   1.0000   1.0000   1.0000   1.0000   1.0000   1.0000
     1.0000   1.0000   1.0000   1.0000   1.0000   1.0000   1.0000   0.0000
     0.0000   0.0000   0.0000   0.0000

          k = 0.0667 0.1155 0.0000 ( 11283 PWs)   bands (ev):

   -29.3429 -29.3364 -29.2593 -29.2556 -29.2172 -29.1442 -29.1412 -29.1069
   -29.0626 -29.0541 -12.2143  -7.1924  -1.9048  -1.4511  -1.0915   1.7448
     1.7720   2.5901   3.8163   3.9027

     occupation numbers 
     1.0000   1.0000   1.0000   1.0000   1.0000   1.0000   1.0000   1.0000
     1.0000   1.0000   1.0000   1.0000   1.0000   1.0000   1.0000   0.0000
     0.0000   0.0000   0.0000   0.0000

          k = 0.0667 0.1925 0.0000 ( 11279 PWs)   bands (ev):

   -29.3415 -29.3265 -29.2582 -29.2500 -29.2135 -29.1487 -29.1418 -29.1094
   -29.0739 -29.0548 -12.0162  -7.1997  -2.7051  -1.5274  -1.3700   1.3159
     2.2069   2.9578   4.0019   4.1353

     occupation numbers 
     1.0000   1.0000   1.0000   1.0000   1.0000   1.0000   1.0000   1.0000
     1.0000   1.0000   1.0000   1.0000   1.0000   1.0000   1.0000   0.0000
     0.0000   0.0000   0.0000   0.0000

          k = 0.0667 0.2695 0.0000 ( 11255 PWs)   bands (ev):

   -29.3398 -29.3126 -29.2568 -29.2420 -29.2077 -29.1552 -29.1433 -29.1132
   -29.0893 -29.0556 -11.7248  -7.2894  -3.4031  -1.9309  -1.3535   0.9056
     2.5225   2.9678   4.2200   4.3993

     occupation numbers 
     1.0000   1.0000   1.0000   1.0000   1.0000   1.0000   1.0000   1.0000
     1.0000   1.0000   1.0000   1.0000   1.0000   1.0000   1.0000   0.0000
     0.0000   0.0000   0.0000   0.0000

          k = 0.0667 0.3464 0.0000 ( 11225 PWs)   bands (ev):

   -29.3379 -29.2961 -29.2549 -29.2321 -29.2002 -29.1637 -29.1464 -29.1204
   -29.1046 -29.0565 -11.3502  -7.5416  -3.8454  -2.2663  -1.4786   0.6951
     2.6101   2.6595   4.5558   4.7268

     occupation numbers 
     1.0000   1.0000   1.0000   1.0000   1.0000   1.0000   1.0000   1.0000
     1.0000   1.0000   1.0000   1.0000   1.0000   1.0000   1.0000   0.0000
     0.0000   0.0000   0.0000   0.0000

          k = 0.0667 0.4234 0.0000 ( 11214 PWs)   bands (ev):

   -29.3363 -29.2806 -29.2500 -29.2208 -29.1920 -29.1737 -29.1517 -29.1357
   -29.1121 -29.0573 -10.9155  -7.9677  -3.9917  -2.4967  -1.7847   0.7463
     2.1730   2.6939   4.6887   5.1257

     occupation numbers 
     1.0000   1.0000   1.0000   1.0000   1.0000   1.0000   1.0000   1.0000
     1.0000   1.0000   1.0000   1.0000   1.0000   1.0000   1.0000   0.0000
     0.0000   0.0000   0.0000   0.0000

          k = 0.0667 0.5004 0.0000 ( 11227 PWs)   bands (ev):

   -29.3351 -29.2719 -29.2391 -29.2090 -29.1881 -29.1830 -29.1591 -29.1507
   -29.1147 -29.0578 -10.4860  -8.4423  -3.9501  -2.5926  -2.1525   0.9683
     1.7771   2.7100   4.4411   5.7289

     occupation numbers 
     1.0000   1.0000   1.0000   1.0000   1.0000   1.0000   1.0000   1.0000
     1.0000   1.0000   1.0000   1.0000   1.0000   1.0000   1.0000   0.0000
     0.0000   0.0000   0.0000   0.0000

          k = 0.0667 0.5774 0.0000 ( 11218 PWs)   bands (ev):

   -29.3347 -29.2698 -29.2310 -29.1981 -29.1973 -29.1850 -29.1594 -29.1591
   -29.1154 -29.0580 -10.2672  -8.6856  -3.9021  -2.5660  -2.3687   1.1578
     1.5434   2.7187   4.3162   6.3210

     occupation numbers 
     1.0000   1.0000   1.0000   1.0000   1.0000   1.0000   1.0000   1.0000
     1.0000   1.0000   1.0000   1.0000   1.0000   1.0000   1.0000   0.0000
     0.0000   0.0000   0.0000   0.0000

          k = 0.1333 0.2310 0.0000 ( 11239 PWs)   bands (ev):

   -29.3401 -29.3147 -29.2561 -29.2447 -29.2084 -29.1547 -29.1423 -29.1126
   -29.0869 -29.0556 -11.7725  -7.2637  -3.2227  -2.1197  -1.3365   1.4317
     2.0724   3.1261   4.2375   4.3376

     occupation numbers 
     1.0000   1.0000   1.0000   1.0000   1.0000   1.0000   1.0000   1.0000
     1.0000   1.0000   1.0000   1.0000   1.0000   1.0000   1.0000   0.0000
     0.0000   0.0000   0.0000   0.0000

          k = 0.1333 0.3080 0.0000 ( 11233 PWs)   bands (ev):

   -29.3385 -29.2993 -29.2537 -29.2376 -29.2009 -29.1630 -29.1434 -29.1181
   -29.1021 -29.0567 -11.4401  -7.4500  -3.6262  -2.6355  -1.3802   1.2519
     2.1599   3.0343   4.4996   4.6599

     occupation numbers 
     1.0000   1.0000   1.0000   1.0000   1.0000   1.0000   1.0000   1.0000
     1.0000   1.0000   1.0000   1.0000   1.0000   1.0000   1.0000   0.0000
     0.0000   0.0000   0.0000   0.0000

          k = 0.1333 0.3849 0.0000 ( 11216 PWs)   bands (ev):

   -29.3368 -29.2824 -29.2505 -29.2286 -29.1922 -29.1731 -29.1461 -29.1307
   -29.1126 -29.0578 -11.0333  -7.8011  -3.8509  -2.9629  -1.5848   1.1424
     2.1360   2.8062   4.8213   5.0555

     occupation numbers 
     1.0000   1.0000   1.0000   1.0000   1.0000   1.0000   1.0000   1.0000
     1.0000   1.0000   1.0000   1.0000   1.0000   1.0000   1.0000   0.0000
     0.0000   0.0000   0.0000   0.0000

          k = 0.1333 0.4619 0.0000 ( 11215 PWs)   bands (ev):

   -29.3355 -29.2690 -29.2430 -29.2182 -29.1867 -29.1819 -29.1525 -29.1464
   -29.1169 -29.0586 -10.5873  -8.2659  -3.9379  -3.0531  -1.9355   1.2000
     2.0145   2.6186   4.7708   5.5596

     occupation numbers 
     1.0000   1.0000   1.0000   1.0000   1.0000   1.0000   1.0000   1.0000
     1.0000   1.0000   1.0000   1.0000   1.0000   1.0000   1.0000   0.0000
     0.0000   0.0000   0.0000   0.0000

          k = 0.1333 0.5389 0.0000 ( 11215 PWs)   bands (ev):

   -29.3348 -29.2640 -29.2305 -29.2080 -29.1978 -29.1797 -29.1618 -29.1534
   -29.1186 -29.0591 -10.2160  -8.6688  -3.9726  -2.9395  -2.2875   1.3187
     1.8859   2.5355   4.5605   6.2125

     occupation numbers 
     1.0000   1.0000   1.0000   1.0000   1.0000   1.0000   1.0000   1.0000
     1.0000   1.0000   1.0000   1.0000   1.0000   1.0000   1.0000   0.0000
     0.0000   0.0000   0.0000   0.0000

          k = 0.2000 0.3464 0.0000 ( 11221 PWs)   bands (ev):

   -29.3370 -29.2830 -29.2498 -29.2323 -29.1921 -29.1731 -29.1438 -29.1288
   -29.1130 -29.0580 -11.0734  -7.7397  -3.6779  -3.2707  -1.5143   1.5226
     1.7268   3.1754   4.8231   5.0269

     occupation numbers 
     1.0000   1.0000   1.0000   1.0000   1.0000   1.0000   1.0000   1.0000
     1.0000   1.0000   1.0000   1.0000   1.0000   1.0000   1.0000   0.0000
     0.0000   0.0000   0.0000   0.0000

          k = 0.2000 0.4234 0.0000 ( 11219 PWs)   bands (ev):

   -29.3358 -29.2662 -29.2451 -29.2246 -29.1853 -29.1825 -29.1467 -29.1443
   -29.1191 -29.0593 -10.6440  -8.1498  -3.8224  -3.4674  -1.7848   1.3122
     1.8270   3.1294   5.1379   5.5016

     occupation numbers 
     1.0000   1.0000   1.0000   1.0000   1.0000   1.0000   1.0000   1.0000
     1.0000   1.0000   1.0000   1.0000   1.0000   1.0000   1.0000   0.0000
     0.0000   0.0000   0.0000   0.0000

          k = 0.2000 0.5004 0.0000 ( 11215 PWs)   bands (ev):

   -29.3349 -29.2560 -29.2348 -29.2150 -29.1982 -29.1757 -29.1630 -29.1471
   -29.1227 -29.0602 -10.2048  -8.6010  -4.0953  -3.2169  -2.1437   1.0759
     2.1572   2.8823   5.0776   6.0774

     occupation numbers 
     1.0000   1.0000   1.0000   1.0000   1.0000   1.0000   1.0000   1.0000
     1.0000   1.0000   1.0000   1.0000   1.0000   1.0000   1.0000   0.0000
     0.0000   0.0000   0.0000   0.0000

          k = 0.2000 0.5774 0.0000 ( 11230 PWs)   bands (ev):

   -29.3346 -29.2538 -29.2236 -29.2116 -29.2057 -29.1777 -29.1669 -29.1487
   -29.1239 -29.0606  -9.9611  -8.8536  -4.1898  -3.0201  -2.3764   0.9970
     2.5123   2.5512   4.9912   6.3960

     occupation numbers 
     1.0000   1.0000   1.0000   1.0000   1.0000   1.0000   1.0000   1.0000
     1.0000   1.0000   1.0000   1.0000   1.0000   1.0000   1.0000   0.0000
     0.0000   0.0000   0.0000   0.0000

          k = 0.2667 0.4619 0.0000 ( 11231 PWs)   bands (ev):

   -29.3349 -29.2497 -29.2402 -29.2171 -29.1984 -29.1742 -29.1633 -29.1439
   -29.1250 -29.0607 -10.2055  -8.5648  -4.1599  -3.3085  -2.0722   0.9598
     2.1399   3.2060   5.7226   5.9607

     occupation numbers 
     1.0000   1.0000   1.0000   1.0000   1.0000   1.0000   1.0000   1.0000
     1.0000   1.0000   1.0000   1.0000   1.0000   1.0000   1.0000   0.0000
     0.0000   0.0000   0.0000   0.0000

          k = 0.2667 0.5389 0.0000 ( 11227 PWs)   bands (ev):

   -29.3345 -29.2420 -29.2293 -29.2132 -29.2062 -29.1793 -29.1686 -29.1427
   -29.1294 -29.0615  -9.7903  -8.9700  -4.3905  -2.9930  -2.3933   0.7260
     2.5306   2.9931   5.8225   6.0542

     occupation numbers 
     1.0000   1.0000   1.0000   1.0000   1.0000   1.0000   1.0000   1.0000
     1.0000   1.0000   1.0000   1.0000   1.0000   1.0000   1.0000   0.0000
     0.0000   0.0000   0.0000   0.0000

          k = 0.3334 0.5774 0.0000 ( 11256 PWs)   bands (ev):

   -29.3343 -29.2289 -29.2269 -29.2268 -29.1938 -29.1937 -29.1672 -29.1364
   -29.1364 -29.0620  -9.3707  -9.3707  -4.5117  -2.6849  -2.6849   0.5834
     2.8438   2.8438   5.8863   6.7421

     occupation numbers 
     1.0000   1.0000   1.0000   1.0000   1.0000   1.0000   1.0000   1.0000
     1.0000   1.0000   1.0000   1.0000   1.0000   1.0000   1.0000   0.0000
     0.0000   0.0000   0.0000   0.0000

     highest occupied, lowest unoccupied level (ev):    -0.7010    0.4449

!    total energy              =    -369.17580794 Ry
     estimated scf accuracy    <          4.8E-09 Ry

     The total energy is the sum of the following terms:
     one-electron contribution =    -811.15838592 Ry
     hartree contribution      =     411.02818700 Ry
     xc contribution           =     -87.07400628 Ry
     ewald contribution        =     118.02839726 Ry

     convergence has been achieved in   9 iterations

     negative rho (up, down):  3.498E-06 0.000E+00

     Forces acting on atoms (cartesian axes, Ry/au):

     atom    1 type  1   force =     0.00000000    0.00000000    0.00008233
     atom    2 type  1   force =     0.00000000    0.00000000   -0.00008233
     The non-local contrib.  to forces
     atom    1 type  1   force =     0.00000000    0.00000000    0.50933604
     atom    2 type  1   force =     0.00000000    0.00000000   -0.50929606
     The ionic contribution  to forces
     atom    1 type  1   force =    -0.00000001    0.00000001  -36.39176893
     atom    2 type  1   force =     0.00000001   -0.00000001   36.39176893
     The local contribution  to forces
     atom    1 type  1   force =     0.00000000   -0.00000000   35.88114644
     atom    2 type  1   force =     0.00000040   -0.00000023  -35.88134451
     The core correction contribution to forces
     atom    1 type  1   force =    -0.00000000    0.00000000    0.00120681
     atom    2 type  1   force =     0.00000003   -0.00000002   -0.00121343
     The Hubbard contrib.    to forces
     atom    1 type  1   force =     0.00000000    0.00000000    0.00000000
     atom    2 type  1   force =     0.00000000    0.00000000    0.00000000
     The SCF correction term to forces
     atom    1 type  1   force =     0.00000000   -0.00000000    0.00000000
     atom    2 type  1   force =    -0.00000000    0.00000000    0.00004195

     Total force =     0.000082     Total SCF correction =     0.000042
     SCF correction compared to forces is large: reduce conv_thr to get better values


     Computing stress (Cartesian axis) and pressure


     negative rho (up, down):  3.498E-06 0.000E+00
          total   stress  (Ry/bohr**3)                   (kbar)     P=        0.15
   0.00000124  -0.00000000   0.00000000            0.18       -0.00        0.00
   0.00000000   0.00000124   0.00000000            0.00        0.18        0.00
   0.00000000   0.00000000   0.00000050            0.00        0.00        0.07

     kinetic stress (kbar)   4883.98     -0.00     -0.00
                               -0.00   4883.98     -0.00
                               -0.00     -0.00   4909.53

     local   stress (kbar) -64833.36      0.00     -0.00
                                0.00 -64833.36      0.00
                               -0.00      0.00  65587.38

     nonloc. stress (kbar)     43.47      0.00      0.00
                                0.00     43.47      0.00
                               -0.00     -0.00     62.17

     hartree stress (kbar)  35120.08      0.00     -0.00
                                0.00  35120.08     -0.00
                               -0.00     -0.00 -27999.73

     exc-cor stress (kbar)   2973.45     -0.00      0.00
                               -0.00   2973.45     -0.00
                                0.00     -0.00   2972.53

     corecor stress (kbar)  -4678.55      0.00      0.00
                                0.00  -4678.55     -0.00
                                0.00     -0.00  -4679.09

     ewald   stress (kbar)  26491.11     -0.00      0.00
                               -0.00  26491.11     -0.00
                                0.00     -0.00 -40852.72

     hubbard stress (kbar)      0.00      0.00      0.00
                                0.00      0.00      0.00
                                0.00      0.00      0.00

     DFT-D   stress (kbar)      0.00      0.00      0.00
                                0.00      0.00      0.00
                                0.00      0.00      0.00

     XDM     stress (kbar)      0.00      0.00      0.00
                                0.00      0.00      0.00
                                0.00      0.00      0.00

     dft-nl  stress (kbar)      0.00      0.00      0.00
                                0.00      0.00      0.00
                                0.00      0.00      0.00

     TS-vdW  stress (kbar)      0.00      0.00      0.00
                                0.00      0.00      0.00
                                0.00      0.00      0.00



     Writing output data file ./tmp/Sb.save/

     init_run     :      3.69s CPU      4.07s WALL (       2 calls)
     electrons    :    198.28s CPU    221.69s WALL (      12 calls)
     update_pot   :     12.48s CPU     12.71s WALL (      10 calls)
     forces       :     12.18s CPU     13.14s WALL (      12 calls)
     stress       :     39.49s CPU     42.28s WALL (      12 calls)

     Called by init_run:
     wfcinit      :      1.29s CPU      1.36s WALL (       2 calls)
     wfcinit:atom :      0.02s CPU      0.02s WALL (      54 calls)
     wfcinit:wfcr :      1.24s CPU      1.30s WALL (      54 calls)
     potinit      :      0.70s CPU      0.74s WALL (       2 calls)
     hinit0       :      1.31s CPU      1.35s WALL (       2 calls)

     Called by electrons:
     c_bands      :    146.37s CPU    158.39s WALL (      79 calls)
     sum_band     :     38.01s CPU     45.26s WALL (      79 calls)
     v_of_rho     :      5.04s CPU      5.58s WALL (      81 calls)
     v_h          :      0.40s CPU      0.47s WALL (      81 calls)
     v_xc         :      6.33s CPU      6.96s WALL (     105 calls)
     newd         :     10.01s CPU     14.27s WALL (      81 calls)
     mix_rho      :      0.56s CPU      0.63s WALL (      79 calls)

     Called by c_bands:
     init_us_2    :      1.98s CPU      2.49s WALL (    4968 calls)
     cegterg      :    141.82s CPU    153.57s WALL (    2133 calls)

     Called by sum_band:
     sum_band:wei :      0.00s CPU      0.00s WALL (      79 calls)
     sum_band:loo :     26.67s CPU     27.83s WALL (      79 calls)
     sum_band:buf :      0.25s CPU      0.26s WALL (    2133 calls)
     sum_band:ini :      0.85s CPU      1.15s WALL (    2133 calls)
     sum_band:cal :      2.56s CPU      3.03s WALL (    2133 calls)
     sum_band:bec :      0.02s CPU      0.02s WALL (    2133 calls)
     addusdens    :      9.78s CPU     15.76s WALL (      79 calls)
     addusd:skk   :      0.03s CPU      0.04s WALL (      79 calls)
     addusd:dgemm :      1.17s CPU      4.96s WALL (      79 calls)
     addusd:qvan2 :      7.67s CPU      9.16s WALL (      79 calls)

     Called by *egterg:
     cdiaghg      :      1.95s CPU      2.43s WALL (    6784 calls)
     cegterg:over :      8.28s CPU      9.85s WALL (    5191 calls)
     cegterg:upda :      3.31s CPU      4.15s WALL (    5191 calls)
     cegterg:last :      5.83s CPU      6.97s WALL (    4077 calls)
     h_psi        :    114.31s CPU    119.56s WALL (    7378 calls)
     s_psi        :      3.49s CPU      4.58s WALL (    7378 calls)
     g_psi        :      0.24s CPU      0.24s WALL (    5191 calls)

     Called by h_psi:
     h_psi:calbec :      7.59s CPU      9.02s WALL (    7378 calls)
     vloc_psi     :    102.08s CPU    104.33s WALL (    7378 calls)
     add_vuspsi   :      4.10s CPU      5.45s WALL (    7378 calls)

     General routines
     calbec       :     11.69s CPU     13.90s WALL (   11131 calls)
     fft          :      5.91s CPU      6.29s WALL (    1349 calls)
     ffts         :      0.14s CPU      0.16s WALL (     160 calls)
     fftw         :    116.60s CPU    119.10s WALL (  253304 calls)
     interpolate  :      0.41s CPU      0.48s WALL (      81 calls)

     Parallel routines
     fft_scatt_xy :     10.99s CPU     11.32s WALL (  254813 calls)
     fft_scatt_yz :     19.73s CPU     20.35s WALL (  254813 calls)

     PWSCF        :   4m27.69s CPU   4m56.17s WALL


   This run was terminated on:  17:14:19  30Apr2026            

=------------------------------------------------------------------------------=
   JOB DONE.
=------------------------------------------------------------------------------=
Note: The following floating-point exceptions are signalling: IEEE_INVALID_FLAG IEEE_DIVIDE_BY_ZERO IEEE_UNDERFLOW_FLAG
