
     Program PWSCF v.6.7MaX starts on 20May2025 at  9:59:12 

     This program is part of the open-source Quantum ESPRESSO suite
     for quantum simulation of materials; please cite
         "P. Giannozzi et al., J. Phys.:Condens. Matter 21 395502 (2009);
         "P. Giannozzi et al., J. Phys.:Condens. Matter 29 465901 (2017);
          URL http://www.quantum-espresso.org", 
     in publications or presentations arising from this work. More details at
     http://www.quantum-espresso.org/quote

     Parallel version (MPI & OpenMP), running on       4 processor cores
     Number of MPI processes:                 4
     Threads/MPI process:                     1

     MPI processes distributed on     1 nodes
     R & G space division:  proc/nbgrp/npool/nimage =       4
     Waiting for input...
     Reading input from standard input

     Current dimensions of program PWSCF are:
     Max number of different atomic species (ntypx) = 10
     Max number of k-points (npk) =  40000
     Max angular momentum in pseudopotentials (lmaxx) =  3
     file Al.pbe-n-kjpaw_psl.1.0.0.UPF: wavefunction(s)  3S 3P renormalized

     gamma-point specific algorithms are used

     Subspace diagonalization in iterative solution of the eigenvalue problem:
     a serial algorithm will be used

     Message from routine setup:
     using ibrav=0 with symmetry is DISCOURAGED, use correct ibrav instead

     Parallelization info
     --------------------
     sticks:   dense  smooth     PW     G-vecs:    dense   smooth      PW
     Min        1046     416    104               135014    34126    4268
     Max        1048     418    106               135028    34132    4281
     Sum        4189    1669    421               540087   136511   17105



     bravais-lattice index     =            0
     lattice parameter (alat)  =       5.3944  a.u.
     unit-cell volume          =   11302.2493 (a.u.)^3
     number of atoms/cell      =           36
     number of atomic types    =            1
     number of electrons       =       108.00
     number of Kohn-Sham states=           65
     kinetic-energy cutoff     =      20.0000  Ry
     charge density cutoff     =     200.0000  Ry
     scf convergence threshold =      1.0E-07
     mixing beta               =       0.5000
     number of iterations used =            8  local-TF  mixing
     energy convergence thresh.=      1.0E-04
     force convergence thresh. =      1.0E-03
     Exchange-correlation= SLA  PW   PBX  PBC
                           (   1   4   3   4   0   0   0)
     nstep                     =           50


     celldm(1)=   5.394412  celldm(2)=   0.000000  celldm(3)=   0.000000
     celldm(4)=   0.000000  celldm(5)=   0.000000  celldm(6)=   0.000000

     crystal axes: (cart. coord. in units of alat)
               a(1) = (   3.000000   0.000000   0.000000 )  
               a(2) = (   0.000000   3.000000   0.000000 )  
               a(3) = (   0.000000   0.000000   8.000000 )  

     reciprocal axes: (cart. coord. in units 2 pi/alat)
               b(1) = (  0.333333  0.000000  0.000000 )  
               b(2) = (  0.000000  0.333333  0.000000 )  
               b(3) = (  0.000000  0.000000  0.125000 )  


     PseudoPot. # 1 for Al read from file:
     ../../Pseudo/Al.pbe-n-kjpaw_psl.1.0.0.UPF
     MD5 check sum: dd5adf945272da8132fc805c9e56c2d6
     Pseudo is Projector augmented-wave + core cor, Zval =  3.0
     Generated using "atomic" code by A. Dal Corso  v.5.1
     Shape of augmentation charge: PSQ
     Using radial grid of 1135 points,  6 beta functions with: 
                l(1) =   0
                l(2) =   0
                l(3) =   1
                l(4) =   1
                l(5) =   2
                l(6) =   2
     Q(r) pseudized with 0 coefficients 


     atomic species   valence    mass     pseudopotential
        Al             3.00     1.00000     Al( 1.00)

      8 Sym. Ops. (no inversion) found



   Cartesian axes

     site n.     atom                  positions (alat units)
         1           Al  tau(   1) = (   0.0000000   0.0000000   0.0000000  )
         2           Al  tau(   2) = (   0.0000000   0.9999999   0.0000000  )
         3           Al  tau(   3) = (   0.0000000   1.9999999   0.0000000  )
         4           Al  tau(   4) = (   0.9999999   0.0000000   0.0000000  )
         5           Al  tau(   5) = (   0.9999999   0.9999999   0.0000000  )
         6           Al  tau(   6) = (   0.9999999   1.9999999   0.0000000  )
         7           Al  tau(   7) = (   1.9999999   0.0000000   0.0000000  )
         8           Al  tau(   8) = (   1.9999999   0.9999999   0.0000000  )
         9           Al  tau(   9) = (   1.9999999   1.9999999   0.0000000  )
        10           Al  tau(  10) = (   0.5000000   0.5000000   0.7071067  )
        11           Al  tau(  11) = (   0.5000000   1.4999999   0.7071067  )
        12           Al  tau(  12) = (   0.5000000   2.4999998   0.7071067  )
        13           Al  tau(  13) = (   1.4999999   0.5000000   0.7071067  )
        14           Al  tau(  14) = (   1.4999999   1.4999999   0.7071067  )
        15           Al  tau(  15) = (   1.4999999   2.4999998   0.7071067  )
        16           Al  tau(  16) = (   2.4999998   0.5000000   0.7071067  )
        17           Al  tau(  17) = (   2.4999998   1.4999999   0.7071067  )
        18           Al  tau(  18) = (   2.4999998   2.4999998   0.7071067  )
        19           Al  tau(  19) = (   0.0000000   0.0000000   1.3971113  )
        20           Al  tau(  20) = (   0.0000000   0.9999999   1.3969850  )
        21           Al  tau(  21) = (   0.0000000   1.9999999   1.3969850  )
        22           Al  tau(  22) = (   0.9999999   0.0000000   1.3969850  )
        23           Al  tau(  23) = (   0.9999999   0.9999999   1.3970185  )
        24           Al  tau(  24) = (   0.9999999   1.9999999   1.3970185  )
        25           Al  tau(  25) = (   1.9999999   0.0000000   1.3969850  )
        26           Al  tau(  26) = (   1.9999999   0.9999999   1.3970185  )
        27           Al  tau(  27) = (   1.9999999   1.9999999   1.3970185  )
        28           Al  tau(  28) = (   0.5000000   0.5000000   2.1490019  )
        29           Al  tau(  29) = (   0.5000000   1.4999999   2.1488312  )
        30           Al  tau(  30) = (   0.5000000   2.4999998   2.1490019  )
        31           Al  tau(  31) = (   1.4999999   0.5000000   2.1488312  )
        32           Al  tau(  32) = (   1.4999999   1.4999999   2.1492298  )
        33           Al  tau(  33) = (   1.4999999   2.4999998   2.1488312  )
        34           Al  tau(  34) = (   2.4999998   0.5000000   2.1490019  )
        35           Al  tau(  35) = (   2.4999998   1.4999999   2.1488312  )
        36           Al  tau(  36) = (   2.4999998   2.4999998   2.1490019  )

     number of k points=     1  Marzari-Vanderbilt smearing, width (Ry)=  0.0500
                       cart. coord. in units 2pi/alat
        k(    1) = (   0.0000000   0.0000000   0.0000000), wk =   2.0000000

     Dense  grid:   270044 G-vectors     FFT dimensions: (  75,  75, 200)

     Smooth grid:    68256 G-vectors     FFT dimensions: (  48,  48, 125)

     Estimated max dynamical RAM per process >     372.80 MB

     Estimated total dynamical RAM >       1.46 GB

     Initial potential from superposition of free atoms

     starting charge  107.91755, renormalised to  108.00000

     negative rho (up, down):  2.478E-04 0.000E+00
     Starting wfcs are  144 randomized atomic wfcs
     Checking if some PAW data can be deallocated... 

     total cpu time spent up to now is        1.8 secs

     Self-consistent Calculation

     iteration #  1     ecut=    20.00 Ry     beta= 0.50
     Davidson diagonalization with overlap
     ethr =  1.00E-02,  avg # of iterations =  4.0

     negative rho (up, down):  1.661E-05 0.000E+00

     total cpu time spent up to now is        3.2 secs

     total energy              =   -1420.71365113 Ry
     estimated scf accuracy    <       5.34001161 Ry

     iteration #  2     ecut=    20.00 Ry     beta= 0.50
     Davidson diagonalization with overlap
     ethr =  4.94E-03,  avg # of iterations =  1.0

     total cpu time spent up to now is        4.5 secs

     total energy              =   -1420.50274269 Ry
     estimated scf accuracy    <       2.19282107 Ry

     iteration #  3     ecut=    20.00 Ry     beta= 0.50
     Davidson diagonalization with overlap
     ethr =  2.03E-03,  avg # of iterations =  2.0

     total cpu time spent up to now is        5.7 secs

     total energy              =   -1420.73624703 Ry
     estimated scf accuracy    <       0.22069020 Ry

     iteration #  4     ecut=    20.00 Ry     beta= 0.50
     Davidson diagonalization with overlap
     ethr =  2.04E-04,  avg # of iterations =  4.0

     total cpu time spent up to now is        7.2 secs

     total energy              =   -1420.79288963 Ry
     estimated scf accuracy    <       0.15843091 Ry

     iteration #  5     ecut=    20.00 Ry     beta= 0.50
     Davidson diagonalization with overlap
     ethr =  1.47E-04,  avg # of iterations =  1.0

     total cpu time spent up to now is        8.5 secs

     total energy              =   -1420.78599590 Ry
     estimated scf accuracy    <       0.12546452 Ry

     iteration #  6     ecut=    20.00 Ry     beta= 0.50
     Davidson diagonalization with overlap
     ethr =  1.16E-04,  avg # of iterations =  2.0

     total cpu time spent up to now is        9.8 secs

     total energy              =   -1420.78322192 Ry
     estimated scf accuracy    <       0.04909978 Ry

     iteration #  7     ecut=    20.00 Ry     beta= 0.50
     Davidson diagonalization with overlap
     ethr =  4.55E-05,  avg # of iterations =  2.0

     total cpu time spent up to now is       11.0 secs

     total energy              =   -1420.78322662 Ry
     estimated scf accuracy    <       0.04292994 Ry

     iteration #  8     ecut=    20.00 Ry     beta= 0.50
     Davidson diagonalization with overlap
     ethr =  3.97E-05,  avg # of iterations =  1.0

     negative rho (up, down):  3.214E-02 0.000E+00

     total cpu time spent up to now is       12.3 secs

     total energy              =   -1420.78170597 Ry
     estimated scf accuracy    <       0.03568627 Ry

     iteration #  9     ecut=    20.00 Ry     beta= 0.50
     Davidson diagonalization with overlap
     ethr =  3.30E-05,  avg # of iterations =  2.0

     negative rho (up, down):  8.143E-02 0.000E+00

     total cpu time spent up to now is       13.7 secs

     total energy              =   -1420.78345605 Ry
     estimated scf accuracy    <       0.02743463 Ry

     iteration # 10     ecut=    20.00 Ry     beta= 0.50
     Davidson diagonalization with overlap
     ethr =  2.54E-05,  avg # of iterations =  2.0

     negative rho (up, down):  1.059E-01 0.000E+00

     total cpu time spent up to now is       15.0 secs

     total energy              =   -1420.78071560 Ry
     estimated scf accuracy    <       0.01443211 Ry

     iteration # 11     ecut=    20.00 Ry     beta= 0.50
     Davidson diagonalization with overlap
     ethr =  1.34E-05,  avg # of iterations =  4.0

     negative rho (up, down):  1.481E-01 0.000E+00

     total cpu time spent up to now is       16.4 secs

     total energy              =   -1420.78571400 Ry
     estimated scf accuracy    <       0.03875984 Ry

     iteration # 12     ecut=    20.00 Ry     beta= 0.50
     Davidson diagonalization with overlap
     ethr =  1.34E-05,  avg # of iterations =  1.0

     negative rho (up, down):  1.020E-01 0.000E+00

     total cpu time spent up to now is       17.6 secs

     total energy              =   -1420.77177992 Ry
     estimated scf accuracy    <       0.02916079 Ry

     iteration # 13     ecut=    20.00 Ry     beta= 0.50
     Davidson diagonalization with overlap
     ethr =  1.34E-05,  avg # of iterations =  3.0

     negative rho (up, down):  1.209E-01 0.000E+00

     total cpu time spent up to now is       19.0 secs

     total energy              =   -1420.77762388 Ry
     estimated scf accuracy    <       0.02730560 Ry

     iteration # 14     ecut=    20.00 Ry     beta= 0.50
     Davidson diagonalization with overlap
     ethr =  1.34E-05,  avg # of iterations =  2.0

     negative rho (up, down):  6.765E-02 0.000E+00

     total cpu time spent up to now is       20.4 secs

     total energy              =   -1420.77912674 Ry
     estimated scf accuracy    <       0.00243806 Ry

     iteration # 15     ecut=    20.00 Ry     beta= 0.50
     Davidson diagonalization with overlap
     ethr =  2.26E-06,  avg # of iterations =  4.0

     negative rho (up, down):  5.416E-02 0.000E+00

     total cpu time spent up to now is       21.7 secs

     total energy              =   -1420.77980843 Ry
     estimated scf accuracy    <       0.00057263 Ry

     iteration # 16     ecut=    20.00 Ry     beta= 0.50
     Davidson diagonalization with overlap
     ethr =  5.30E-07,  avg # of iterations =  8.0

     negative rho (up, down):  1.758E-02 0.000E+00

     total cpu time spent up to now is       23.1 secs

     total energy              =   -1420.77988013 Ry
     estimated scf accuracy    <       0.00028654 Ry

     iteration # 17     ecut=    20.00 Ry     beta= 0.50
     Davidson diagonalization with overlap
     ethr =  2.65E-07,  avg # of iterations =  3.0

     negative rho (up, down):  1.533E-02 0.000E+00

     total cpu time spent up to now is       24.4 secs

     total energy              =   -1420.77987883 Ry
     estimated scf accuracy    <       0.00061897 Ry

     iteration # 18     ecut=    20.00 Ry     beta= 0.50
     Davidson diagonalization with overlap
     ethr =  2.65E-07,  avg # of iterations =  1.0

     negative rho (up, down):  1.030E-02 0.000E+00

     total cpu time spent up to now is       25.7 secs

     total energy              =   -1420.77982869 Ry
     estimated scf accuracy    <       0.00016461 Ry

     iteration # 19     ecut=    20.00 Ry     beta= 0.50
     Davidson diagonalization with overlap
     ethr =  1.52E-07,  avg # of iterations =  4.0

     negative rho (up, down):  4.173E-03 0.000E+00

     total cpu time spent up to now is       27.2 secs

     total energy              =   -1420.77986646 Ry
     estimated scf accuracy    <       0.00020657 Ry

     iteration # 20     ecut=    20.00 Ry     beta= 0.50
     Davidson diagonalization with overlap
     ethr =  1.52E-07,  avg # of iterations =  1.0

     negative rho (up, down):  1.968E-03 0.000E+00

     total cpu time spent up to now is       28.4 secs

     total energy              =   -1420.77984047 Ry
     estimated scf accuracy    <       0.00011542 Ry

     iteration # 21     ecut=    20.00 Ry     beta= 0.50
     Davidson diagonalization with overlap
     ethr =  1.07E-07,  avg # of iterations =  1.0

     negative rho (up, down):  9.377E-04 0.000E+00

     total cpu time spent up to now is       29.7 secs

     total energy              =   -1420.77983642 Ry
     estimated scf accuracy    <       0.00001629 Ry

     iteration # 22     ecut=    20.00 Ry     beta= 0.50
     Davidson diagonalization with overlap
     ethr =  1.51E-08,  avg # of iterations =  7.0

     negative rho (up, down):  7.384E-04 0.000E+00

     total cpu time spent up to now is       31.2 secs

     total energy              =   -1420.77984480 Ry
     estimated scf accuracy    <       0.00000586 Ry

     iteration # 23     ecut=    20.00 Ry     beta= 0.50
     Davidson diagonalization with overlap
     ethr =  5.43E-09,  avg # of iterations =  5.0

     negative rho (up, down):  7.184E-04 0.000E+00

     total cpu time spent up to now is       32.5 secs

     total energy              =   -1420.77984469 Ry
     estimated scf accuracy    <       0.00000779 Ry

     iteration # 24     ecut=    20.00 Ry     beta= 0.50
     Davidson diagonalization with overlap
     ethr =  5.43E-09,  avg # of iterations =  2.0

     negative rho (up, down):  6.448E-04 0.000E+00

     total cpu time spent up to now is       33.9 secs

     total energy              =   -1420.77984431 Ry
     estimated scf accuracy    <       0.00000087 Ry

     iteration # 25     ecut=    20.00 Ry     beta= 0.50
     Davidson diagonalization with overlap
     ethr =  8.02E-10,  avg # of iterations =  5.0

     negative rho (up, down):  6.088E-04 0.000E+00

     total cpu time spent up to now is       35.3 secs

     total energy              =   -1420.77984406 Ry
     estimated scf accuracy    <       0.00000030 Ry

     iteration # 26     ecut=    20.00 Ry     beta= 0.50
     Davidson diagonalization with overlap
     ethr =  2.75E-10,  avg # of iterations =  2.0

     negative rho (up, down):  4.052E-04 0.000E+00

     total cpu time spent up to now is       36.6 secs

     total energy              =   -1420.77984161 Ry
     estimated scf accuracy    <       0.00000023 Ry

     iteration # 27     ecut=    20.00 Ry     beta= 0.50
     Davidson diagonalization with overlap
     ethr =  2.17E-10,  avg # of iterations =  2.0

     negative rho (up, down):  2.964E-04 0.000E+00

     total cpu time spent up to now is       37.9 secs

     total energy              =   -1420.77984151 Ry
     estimated scf accuracy    <       0.00000024 Ry

     iteration # 28     ecut=    20.00 Ry     beta= 0.50
     Davidson diagonalization with overlap
     ethr =  2.17E-10,  avg # of iterations =  2.0

     negative rho (up, down):  2.407E-04 0.000E+00

     total cpu time spent up to now is       39.2 secs

     total energy              =   -1420.77984212 Ry
     estimated scf accuracy    <       0.00000012 Ry

     iteration # 29     ecut=    20.00 Ry     beta= 0.50
     Davidson diagonalization with overlap
     ethr =  1.09E-10,  avg # of iterations =  2.0

     negative rho (up, down):  2.321E-04 0.000E+00

     total cpu time spent up to now is       40.5 secs

     total energy              =   -1420.77984214 Ry
     estimated scf accuracy    <       0.00000012 Ry

     iteration # 30     ecut=    20.00 Ry     beta= 0.50
     Davidson diagonalization with overlap
     ethr =  1.09E-10,  avg # of iterations =  2.0

     negative rho (up, down):  1.941E-04 0.000E+00

     total cpu time spent up to now is       41.8 secs

     total energy              =   -1420.77984242 Ry
     estimated scf accuracy    <       0.00000025 Ry

     iteration # 31     ecut=    20.00 Ry     beta= 0.50
     Davidson diagonalization with overlap
     ethr =  1.09E-10,  avg # of iterations =  4.0

     negative rho (up, down):  1.819E-04 0.000E+00

     total cpu time spent up to now is       43.2 secs

     total energy              =   -1420.77984261 Ry
     estimated scf accuracy    <       0.00000015 Ry

     iteration # 32     ecut=    20.00 Ry     beta= 0.50
     Davidson diagonalization with overlap
     ethr =  1.09E-10,  avg # of iterations =  2.0

     negative rho (up, down):  7.764E-05 0.000E+00

     total cpu time spent up to now is       44.5 secs

     total energy              =   -1420.77984272 Ry
     estimated scf accuracy    <       0.00000012 Ry

     iteration # 33     ecut=    20.00 Ry     beta= 0.50
     Davidson diagonalization with overlap
     ethr =  1.09E-10,  avg # of iterations =  2.0

     negative rho (up, down):  1.009E-04 0.000E+00

     total cpu time spent up to now is       45.9 secs

     End of self-consistent calculation

          k = 0.0000 0.0000 0.0000 (  8553 PWs)   bands (ev):

   -10.4302  -9.0215  -8.4307  -8.4305  -8.4305  -8.4303  -7.1014  -7.0367
    -7.0366  -7.0366  -7.0365  -6.4613  -6.4613  -6.4613  -6.4612  -5.1386
    -5.1386  -5.1386  -5.1385  -5.0809  -5.0809  -5.0809  -5.0809  -4.2101
    -3.2066  -3.2066  -3.2065  -3.2065  -2.6070  -2.6069  -2.6069  -2.6068
    -2.2623  -2.2621  -2.2621  -2.2620  -1.9089  -1.3135  -1.3135  -1.3133
    -1.3133  -1.2535  -1.2534  -1.2534  -1.2534  -0.4117  -0.4117  -0.4115
    -0.4115  -0.0248  -0.0247  -0.0247  -0.0246   0.0016   0.0016   0.0018
     0.0018   0.1591   0.1591   0.1592   0.1592   0.6185   0.6186   0.6186
     0.6186

     the Fermi energy is     0.0497 ev

!    total energy              =   -1420.77984271 Ry

     total all-electron energy =    -17481.919980 Ry
     estimated scf accuracy    <       0.00000003 Ry
     smearing contrib. (-TS)   =      -0.14265948 Ry
     internal energy E=F+TS    =   -1420.63718322 Ry

     The total energy is F=E-TS. E is the sum of the following terms:
     one-electron contribution =   -1553.04217971 Ry
     hartree contribution      =     803.33698573 Ry
     xc contribution           =     -91.13887406 Ry
     ewald contribution        =     668.58473614 Ry
     one-center paw contrib.   =   -1248.37785132 Ry

     convergence has been achieved in  33 iterations

     negative rho (up, down):  1.009E-04 0.000E+00

     Forces acting on atoms (cartesian axes, Ry/au):

     atom    1 type  1   force =     0.00000000    0.00000000    0.01272315
     atom    2 type  1   force =     0.00000000    0.00000055    0.01271414
     atom    3 type  1   force =     0.00000000   -0.00000055    0.01271414
     atom    4 type  1   force =     0.00000055    0.00000000    0.01271414
     atom    5 type  1   force =    -0.00000144   -0.00000144    0.01271819
     atom    6 type  1   force =    -0.00000144    0.00000144    0.01271819
     atom    7 type  1   force =    -0.00000055    0.00000000    0.01271414
     atom    8 type  1   force =     0.00000144   -0.00000144    0.01271819
     atom    9 type  1   force =     0.00000144    0.00000144    0.01271819
     atom   10 type  1   force =    -0.00000642   -0.00000642   -0.00939893
     atom   11 type  1   force =     0.00000704    0.00000000   -0.00941198
     atom   12 type  1   force =    -0.00000642    0.00000642   -0.00939893
     atom   13 type  1   force =     0.00000000    0.00000704   -0.00941198
     atom   14 type  1   force =     0.00000000    0.00000000   -0.00938857
     atom   15 type  1   force =    -0.00000000   -0.00000704   -0.00941198
     atom   16 type  1   force =     0.00000642   -0.00000642   -0.00939893
     atom   17 type  1   force =    -0.00000704    0.00000000   -0.00941198
     atom   18 type  1   force =     0.00000642    0.00000642   -0.00939893
     atom   19 type  1   force =     0.00000000    0.00000000    0.01575753
     atom   20 type  1   force =    -0.00000000   -0.00000966    0.01581160
     atom   21 type  1   force =     0.00000000    0.00000966    0.01581160
     atom   22 type  1   force =    -0.00000966    0.00000000    0.01581160
     atom   23 type  1   force =     0.00000443    0.00000443    0.01579646
     atom   24 type  1   force =     0.00000443   -0.00000443    0.01579646
     atom   25 type  1   force =     0.00000966   -0.00000000    0.01581160
     atom   26 type  1   force =    -0.00000443    0.00000443    0.01579646
     atom   27 type  1   force =    -0.00000443   -0.00000443    0.01579646
     atom   28 type  1   force =     0.00000066    0.00000066   -0.01911125
     atom   29 type  1   force =     0.00000165   -0.00000000   -0.01911425
     atom   30 type  1   force =     0.00000066   -0.00000066   -0.01911125
     atom   31 type  1   force =    -0.00000000    0.00000165   -0.01911425
     atom   32 type  1   force =     0.00000000    0.00000000   -0.01910803
     atom   33 type  1   force =    -0.00000000   -0.00000165   -0.01911425
     atom   34 type  1   force =    -0.00000066    0.00000066   -0.01911125
     atom   35 type  1   force =    -0.00000165    0.00000000   -0.01911425
     atom   36 type  1   force =    -0.00000066   -0.00000066   -0.01911125

     Total force =     0.074390     Total SCF correction =     0.000210

     BFGS Geometry Optimization
     Energy error            =      0.0E+00
     Gradient error          =      1.9E-02

     number of scf cycles    =   1
     number of bfgs steps    =   0

     energy   new            =   -1420.7798427051 Ry

     new trust radius        =       0.0191142491 bohr
     new conv_thr            =       0.0000001000 Ry


ATOMIC_POSITIONS (alat)
Al            0.0000000000        0.0000000000        0.0000000000    0   0   0
Al            0.0000000000        0.9999999399        0.0000000000    0   0   0
Al            0.0000000000        1.9999998798        0.0000000000    0   0   0
Al            0.9999999399        0.0000000000        0.0000000000    0   0   0
Al            0.9999999399        0.9999999399        0.0000000000    0   0   0
Al            0.9999999399        1.9999998798        0.0000000000    0   0   0
Al            1.9999998798        0.0000000000        0.0000000000    0   0   0
Al            1.9999998798        0.9999999399        0.0000000000    0   0   0
Al            1.9999998798        1.9999998798        0.0000000000    0   0   0
Al            0.4999999699        0.4999999699        0.7071067265    0   0   0
Al            0.4999999699        1.4999999098        0.7071067265    0   0   0
Al            0.4999999699        2.4999998497        0.7071067265    0   0   0
Al            1.4999999098        0.4999999699        0.7071067265    0   0   0
Al            1.4999999098        1.4999999098        0.7071067265    0   0   0
Al            1.4999999098        2.4999998497        0.7071067265    0   0   0
Al            2.4999998497        0.4999999699        0.7071067265    0   0   0
Al            2.4999998497        1.4999999098        0.7071067265    0   0   0
Al            2.4999998497        2.4999998497        0.7071067265    0   0   0
Al            0.0000000000        0.0000000000        1.4000323979    0   0   1
Al            0.0000000000        0.9999999399        1.3999161316    0   0   1
Al            0.0000000000        1.9999998798        1.3999161316    0   0   1
Al            0.9999999399        0.0000000000        1.3999161316    0   0   1
Al            0.9999999399        0.9999999399        1.3999467890    0   0   1
Al            0.9999999399        1.9999998798        1.3999467890    0   0   1
Al            1.9999998798        0.0000000000        1.3999161316    0   0   1
Al            1.9999998798        0.9999999399        1.3999467890    0   0   1
Al            1.9999998798        1.9999998798        1.3999467890    0   0   1
Al            0.4999999699        0.4999999699        2.1454590850    0   0   1
Al            0.4999999699        1.4999999098        2.1452878199    0   0   1
Al            0.4999999699        2.4999998497        2.1454590850    0   0   1
Al            1.4999999098        0.4999999699        2.1452878199    0   0   1
Al            1.4999999098        1.4999999098        2.1456876473    0   0   1
Al            1.4999999098        2.4999998497        2.1452878199    0   0   1
Al            2.4999998497        0.4999999699        2.1454590850    0   0   1
Al            2.4999998497        1.4999999098        2.1452878199    0   0   1
Al            2.4999998497        2.4999998497        2.1454590850    0   0   1



     Writing output data file ./tmp/Al.save/
     NEW-OLD atomic charge density approx. for the potential

     negative rho (up, down):  1.053E-04 0.000E+00

     total cpu time spent up to now is       48.2 secs

     Self-consistent Calculation

     iteration #  1     ecut=    20.00 Ry     beta= 0.50
     Davidson diagonalization with overlap
     ethr =  1.00E-06,  avg # of iterations =  8.0

     negative rho (up, down):  1.069E-04 0.000E+00

     total cpu time spent up to now is       49.8 secs

     total energy              =   -1420.78525155 Ry
     estimated scf accuracy    <       0.00360279 Ry

     iteration #  2     ecut=    20.00 Ry     beta= 0.50
     Davidson diagonalization with overlap
     ethr =  3.34E-06,  avg # of iterations =  1.0

     negative rho (up, down):  1.126E-04 0.000E+00

     total cpu time spent up to now is       51.1 secs

     total energy              =   -1420.78517378 Ry
     estimated scf accuracy    <       0.00083291 Ry

     iteration #  3     ecut=    20.00 Ry     beta= 0.50
     Davidson diagonalization with overlap
     ethr =  7.71E-07,  avg # of iterations =  6.0

     negative rho (up, down):  1.089E-04 0.000E+00

     total cpu time spent up to now is       52.5 secs

     total energy              =   -1420.78526797 Ry
     estimated scf accuracy    <       0.00015701 Ry

     iteration #  4     ecut=    20.00 Ry     beta= 0.50
     Davidson diagonalization with overlap
     ethr =  1.45E-07,  avg # of iterations =  5.0

     negative rho (up, down):  1.056E-04 0.000E+00

     total cpu time spent up to now is       53.8 secs

     total energy              =   -1420.78528604 Ry
     estimated scf accuracy    <       0.00002285 Ry

     iteration #  5     ecut=    20.00 Ry     beta= 0.50
     Davidson diagonalization with overlap
     ethr =  2.12E-08,  avg # of iterations =  5.0

     negative rho (up, down):  9.905E-05 0.000E+00

     total cpu time spent up to now is       55.2 secs

     total energy              =   -1420.78528256 Ry
     estimated scf accuracy    <       0.00004770 Ry

     iteration #  6     ecut=    20.00 Ry     beta= 0.50
     Davidson diagonalization with overlap
     ethr =  2.12E-08,  avg # of iterations =  2.0

     negative rho (up, down):  8.482E-05 0.000E+00

     total cpu time spent up to now is       56.5 secs

     total energy              =   -1420.78528617 Ry
     estimated scf accuracy    <       0.00000096 Ry

     iteration #  7     ecut=    20.00 Ry     beta= 0.50
     Davidson diagonalization with overlap
     ethr =  8.92E-10,  avg # of iterations = 11.0

     negative rho (up, down):  6.657E-05 0.000E+00

     total cpu time spent up to now is       58.1 secs

     total energy              =   -1420.78528556 Ry
     estimated scf accuracy    <       0.00001054 Ry

     iteration #  8     ecut=    20.00 Ry     beta= 0.50
     Davidson diagonalization with overlap
     ethr =  8.92E-10,  avg # of iterations =  7.0

     negative rho (up, down):  6.301E-05 0.000E+00

     total cpu time spent up to now is       59.6 secs

     total energy              =   -1420.78528604 Ry
     estimated scf accuracy    <       0.00000136 Ry

     iteration #  9     ecut=    20.00 Ry     beta= 0.50
     Davidson diagonalization with overlap
     ethr =  8.92E-10,  avg # of iterations =  1.0

     negative rho (up, down):  4.601E-05 0.000E+00

     total cpu time spent up to now is       61.4 secs

     total energy              =   -1420.78528593 Ry
     estimated scf accuracy    <       0.00000119 Ry

     iteration # 10     ecut=    20.00 Ry     beta= 0.50
     Davidson diagonalization with overlap
     ethr =  8.92E-10,  avg # of iterations =  1.0

     negative rho (up, down):  1.961E-05 0.000E+00

     total cpu time spent up to now is       62.7 secs

     total energy              =   -1420.78528588 Ry
     estimated scf accuracy    <       0.00000046 Ry

     iteration # 11     ecut=    20.00 Ry     beta= 0.50
     Davidson diagonalization with overlap
     ethr =  4.30E-10,  avg # of iterations =  6.0

     negative rho (up, down):  8.915E-06 0.000E+00

     total cpu time spent up to now is       64.1 secs

     total energy              =   -1420.78528581 Ry
     estimated scf accuracy    <       0.00000084 Ry

     iteration # 12     ecut=    20.00 Ry     beta= 0.50
     Davidson diagonalization with overlap
     ethr =  4.30E-10,  avg # of iterations =  2.0

     negative rho (up, down):  3.619E-06 0.000E+00

     total cpu time spent up to now is       65.4 secs

     total energy              =   -1420.78528594 Ry
     estimated scf accuracy    <       0.00000012 Ry

     iteration # 13     ecut=    20.00 Ry     beta= 0.50
     Davidson diagonalization with overlap
     ethr =  1.10E-10,  avg # of iterations =  6.0

     negative rho (up, down):  2.695E-06 0.000E+00

     total cpu time spent up to now is       66.9 secs

     total energy              =   -1420.78528612 Ry
     estimated scf accuracy    <       0.00000025 Ry

     iteration # 14     ecut=    20.00 Ry     beta= 0.50
     Davidson diagonalization with overlap
     ethr =  1.10E-10,  avg # of iterations =  6.0

     negative rho (up, down):  9.686E-06 0.000E+00

     total cpu time spent up to now is       68.2 secs

     total energy              =   -1420.78528616 Ry
     estimated scf accuracy    <       0.00000031 Ry

     iteration # 15     ecut=    20.00 Ry     beta= 0.50
     Davidson diagonalization with overlap
     ethr =  1.10E-10,  avg # of iterations =  2.0

     negative rho (up, down):  1.705E-05 0.000E+00

     total cpu time spent up to now is       69.6 secs

     total energy              =   -1420.78528613 Ry
     estimated scf accuracy    <       0.00000015 Ry

     iteration # 16     ecut=    20.00 Ry     beta= 0.50
     Davidson diagonalization with overlap
     ethr =  1.10E-10,  avg # of iterations =  2.0

     negative rho (up, down):  1.033E-04 0.000E+00

     total cpu time spent up to now is       70.9 secs

     End of self-consistent calculation

          k = 0.0000 0.0000 0.0000 (  8553 PWs)   bands (ev):

   -10.4311  -9.0365  -8.4316  -8.4314  -8.4314  -8.4311  -7.0918  -7.0518
    -7.0517  -7.0517  -7.0515  -6.4620  -6.4620  -6.4620  -6.4619  -5.1291
    -5.1291  -5.1291  -5.1290  -5.0962  -5.0962  -5.0962  -5.0962  -4.2031
    -3.1971  -3.1971  -3.1971  -3.1971  -2.6072  -2.6071  -2.6071  -2.6071
    -2.2556  -2.2554  -2.2554  -2.2553  -1.9028  -1.3133  -1.3133  -1.3131
    -1.3131  -1.2690  -1.2689  -1.2689  -1.2689  -0.4053  -0.4053  -0.4051
    -0.4051  -0.0201  -0.0200  -0.0200  -0.0199  -0.0160  -0.0160  -0.0158
    -0.0158   0.1586   0.1586   0.1586   0.1586   0.6276   0.6277   0.6277
     0.6277

     the Fermi energy is     0.0486 ev

!    total energy              =   -1420.78528716 Ry

     total all-electron energy =    -17481.925424 Ry
     estimated scf accuracy    <       0.00000004 Ry
     smearing contrib. (-TS)   =      -0.14456292 Ry
     internal energy E=F+TS    =   -1420.64072424 Ry

     The total energy is F=E-TS. E is the sum of the following terms:
     one-electron contribution =   -1554.83072857 Ry
     hartree contribution      =     804.24369722 Ry
     xc contribution           =     -91.15923152 Ry
     ewald contribution        =     669.48431719 Ry
     one-center paw contrib.   =   -1248.37877856 Ry

     convergence has been achieved in  16 iterations

     negative rho (up, down):  1.033E-04 0.000E+00

     Forces acting on atoms (cartesian axes, Ry/au):

     atom    1 type  1   force =     0.00000000    0.00000000    0.01320325
     atom    2 type  1   force =     0.00000000    0.00000003    0.01319455
     atom    3 type  1   force =    -0.00000000   -0.00000003    0.01319455
     atom    4 type  1   force =     0.00000003   -0.00000000    0.01319455
     atom    5 type  1   force =    -0.00000131   -0.00000131    0.01319837
     atom    6 type  1   force =    -0.00000131    0.00000131    0.01319837
     atom    7 type  1   force =    -0.00000003   -0.00000000    0.01319455
     atom    8 type  1   force =     0.00000131   -0.00000131    0.01319837
     atom    9 type  1   force =     0.00000131    0.00000131    0.01319837
     atom   10 type  1   force =    -0.00000600   -0.00000600   -0.00930668
     atom   11 type  1   force =     0.00000678   -0.00000000   -0.00931928
     atom   12 type  1   force =    -0.00000600    0.00000600   -0.00930668
     atom   13 type  1   force =    -0.00000000    0.00000678   -0.00931928
     atom   14 type  1   force =     0.00000000    0.00000000   -0.00929584
     atom   15 type  1   force =     0.00000000   -0.00000678   -0.00931928
     atom   16 type  1   force =     0.00000600   -0.00000600   -0.00930668
     atom   17 type  1   force =    -0.00000678   -0.00000000   -0.00931928
     atom   18 type  1   force =     0.00000600    0.00000600   -0.00930668
     atom   19 type  1   force =     0.00000000    0.00000000    0.01487605
     atom   20 type  1   force =     0.00000000   -0.00001051    0.01492622
     atom   21 type  1   force =     0.00000000    0.00001051    0.01492622
     atom   22 type  1   force =    -0.00001051    0.00000000    0.01492622
     atom   23 type  1   force =     0.00000495    0.00000495    0.01491222
     atom   24 type  1   force =     0.00000495   -0.00000495    0.01491222
     atom   25 type  1   force =     0.00001051    0.00000000    0.01492622
     atom   26 type  1   force =    -0.00000495    0.00000495    0.01491222
     atom   27 type  1   force =    -0.00000495   -0.00000495    0.01491222
     atom   28 type  1   force =     0.00000061    0.00000061   -0.01880035
     atom   29 type  1   force =     0.00000100   -0.00000000   -0.01880101
     atom   30 type  1   force =     0.00000061   -0.00000061   -0.01880035
     atom   31 type  1   force =    -0.00000000    0.00000100   -0.01880101
     atom   32 type  1   force =     0.00000000    0.00000000   -0.01879961
     atom   33 type  1   force =    -0.00000000   -0.00000100   -0.01880101
     atom   34 type  1   force =    -0.00000061    0.00000061   -0.01880035
     atom   35 type  1   force =    -0.00000100    0.00000000   -0.01880101
     atom   36 type  1   force =    -0.00000061   -0.00000061   -0.01880035

     Total force =     0.071994     Total SCF correction =     0.000032
     Energy error            =      5.4E-03
     Gradient error          =      1.9E-02

     number of scf cycles    =   2
     number of bfgs steps    =   1

     energy   old            =   -1420.7798427051 Ry
     energy   new            =   -1420.7852871559 Ry

     CASE: energy  _new < energy  _old


     WARNING: bfgs curvature condition failed, Theta= 0.827
     new trust radius        =       0.0210256740 bohr
     new conv_thr            =       0.0000000188 Ry


ATOMIC_POSITIONS (alat)
Al            0.0000000000        0.0000000000        0.0000000000    0   0   0
Al            0.0000000000        0.9999999399        0.0000000000    0   0   0
Al            0.0000000000        1.9999998798        0.0000000000    0   0   0
Al            0.9999999399        0.0000000000        0.0000000000    0   0   0
Al            0.9999999399        0.9999999399        0.0000000000    0   0   0
Al            0.9999999399        1.9999998798        0.0000000000    0   0   0
Al            1.9999998798        0.0000000000        0.0000000000    0   0   0
Al            1.9999998798        0.9999999399        0.0000000000    0   0   0
Al            1.9999998798        1.9999998798        0.0000000000    0   0   0
Al            0.4999999699        0.4999999699        0.7071067265    0   0   0
Al            0.4999999699        1.4999999098        0.7071067265    0   0   0
Al            0.4999999699        2.4999998497        0.7071067265    0   0   0
Al            1.4999999098        0.4999999699        0.7071067265    0   0   0
Al            1.4999999098        1.4999999098        0.7071067265    0   0   0
Al            1.4999999098        2.4999998497        0.7071067265    0   0   0
Al            2.4999998497        0.4999999699        0.7071067265    0   0   0
Al            2.4999998497        1.4999999098        0.7071067265    0   0   0
Al            2.4999998497        2.4999998497        0.7071067265    0   0   0
Al            0.0000000000        0.0000000000        1.4031169535    0   0   1
Al            0.0000000000        0.9999999399        1.4030110897    0   0   1
Al            0.0000000000        1.9999998798        1.4030110897    0   0   1
Al            0.9999999399        0.0000000000        1.4030110897    0   0   1
Al            0.9999999399        0.9999999399        1.4030388444    0   0   1
Al            0.9999999399        1.9999998798        1.4030388444    0   0   1
Al            1.9999998798        0.0000000000        1.4030110897    0   0   1
Al            1.9999998798        0.9999999399        1.4030388444    0   0   1
Al            1.9999998798        1.9999998798        1.4030388444    0   0   1
Al            0.4999999699        0.4999999699        2.1415615476    0   0   1
Al            0.4999999699        1.4999999098        2.1413901433    0   0   1
Al            0.4999999699        2.4999998497        2.1415615476    0   0   1
Al            1.4999999098        0.4999999699        2.1413901433    0   0   1
Al            1.4999999098        1.4999999098        2.1417902653    0   0   1
Al            1.4999999098        2.4999998497        2.1413901433    0   0   1
Al            2.4999998497        0.4999999699        2.1415615476    0   0   1
Al            2.4999998497        1.4999999098        2.1413901433    0   0   1
Al            2.4999998497        2.4999998497        2.1415615476    0   0   1



     Writing output data file ./tmp/Al.save/
     NEW-OLD atomic charge density approx. for the potential

     negative rho (up, down):  1.074E-04 0.000E+00

     total cpu time spent up to now is       73.2 secs

     Self-consistent Calculation

     iteration #  1     ecut=    20.00 Ry     beta= 0.50
     Davidson diagonalization with overlap
     ethr =  1.00E-06,  avg # of iterations =  8.0

     negative rho (up, down):  1.085E-04 0.000E+00

     total cpu time spent up to now is       74.9 secs

     total energy              =   -1420.79092042 Ry
     estimated scf accuracy    <       0.00479228 Ry

     iteration #  2     ecut=    20.00 Ry     beta= 0.50
     Davidson diagonalization with overlap
     ethr =  4.44E-06,  avg # of iterations =  1.0

     negative rho (up, down):  1.139E-04 0.000E+00

     total cpu time spent up to now is       76.3 secs

     total energy              =   -1420.79082704 Ry
     estimated scf accuracy    <       0.00109048 Ry

     iteration #  3     ecut=    20.00 Ry     beta= 0.50
     Davidson diagonalization with overlap
     ethr =  1.01E-06,  avg # of iterations =  6.0

     negative rho (up, down):  1.097E-04 0.000E+00

     total cpu time spent up to now is       77.7 secs

     total energy              =   -1420.79094918 Ry
     estimated scf accuracy    <       0.00020772 Ry

     iteration #  4     ecut=    20.00 Ry     beta= 0.50
     Davidson diagonalization with overlap
     ethr =  1.92E-07,  avg # of iterations =  5.0

     negative rho (up, down):  1.059E-04 0.000E+00

     total cpu time spent up to now is       79.2 secs

     total energy              =   -1420.79097250 Ry
     estimated scf accuracy    <       0.00002766 Ry

     iteration #  5     ecut=    20.00 Ry     beta= 0.50
     Davidson diagonalization with overlap
     ethr =  2.56E-08,  avg # of iterations =  6.0

     negative rho (up, down):  9.934E-05 0.000E+00

     total cpu time spent up to now is       80.7 secs

     total energy              =   -1420.79097781 Ry
     estimated scf accuracy    <       0.00002790 Ry

     iteration #  6     ecut=    20.00 Ry     beta= 0.50
     Davidson diagonalization with overlap
     ethr =  2.56E-08,  avg # of iterations =  2.0

     negative rho (up, down):  8.107E-05 0.000E+00

     total cpu time spent up to now is       82.2 secs

     total energy              =   -1420.79097816 Ry
     estimated scf accuracy    <       0.00000345 Ry

     iteration #  7     ecut=    20.00 Ry     beta= 0.50
     Davidson diagonalization with overlap
     ethr =  3.19E-09,  avg # of iterations =  6.0

     negative rho (up, down):  6.568E-05 0.000E+00

     total cpu time spent up to now is       83.7 secs

     total energy              =   -1420.79097812 Ry
     estimated scf accuracy    <       0.00000347 Ry

     iteration #  8     ecut=    20.00 Ry     beta= 0.50
     Davidson diagonalization with overlap
     ethr =  3.19E-09,  avg # of iterations =  1.0

     negative rho (up, down):  6.433E-05 0.000E+00

     total cpu time spent up to now is       85.0 secs

     total energy              =   -1420.79097837 Ry
     estimated scf accuracy    <       0.00000088 Ry

     iteration #  9     ecut=    20.00 Ry     beta= 0.50
     Davidson diagonalization with overlap
     ethr =  8.17E-10,  avg # of iterations =  2.0

     negative rho (up, down):  4.341E-05 0.000E+00

     total cpu time spent up to now is       86.3 secs

     total energy              =   -1420.79097835 Ry
     estimated scf accuracy    <       0.00000067 Ry

     iteration # 10     ecut=    20.00 Ry     beta= 0.50
     Davidson diagonalization with overlap
     ethr =  6.19E-10,  avg # of iterations =  2.0

     negative rho (up, down):  1.354E-05 0.000E+00

     total cpu time spent up to now is       87.7 secs

     total energy              =   -1420.79097806 Ry
     estimated scf accuracy    <       0.00000039 Ry

     iteration # 11     ecut=    20.00 Ry     beta= 0.50
     Davidson diagonalization with overlap
     ethr =  3.64E-10,  avg # of iterations =  7.0

     negative rho (up, down):  1.284E-05 0.000E+00

     total cpu time spent up to now is       89.1 secs

     total energy              =   -1420.79097817 Ry
     estimated scf accuracy    <       0.00000085 Ry

     iteration # 12     ecut=    20.00 Ry     beta= 0.50
     Davidson diagonalization with overlap
     ethr =  3.64E-10,  avg # of iterations =  2.0

     negative rho (up, down):  6.949E-06 0.000E+00

     total cpu time spent up to now is       90.5 secs

     total energy              =   -1420.79097853 Ry
     estimated scf accuracy    <       0.00000042 Ry

     iteration # 13     ecut=    20.00 Ry     beta= 0.50
     Davidson diagonalization with overlap
     ethr =  3.64E-10,  avg # of iterations =  6.0

     negative rho (up, down):  4.155E-06 0.000E+00

     total cpu time spent up to now is       92.0 secs

     total energy              =   -1420.79097844 Ry
     estimated scf accuracy    <       0.00000102 Ry

     iteration # 14     ecut=    20.00 Ry     beta= 0.50
     Davidson diagonalization with overlap
     ethr =  3.64E-10,  avg # of iterations =  2.0

     negative rho (up, down):  3.164E-06 0.000E+00

     total cpu time spent up to now is       93.4 secs

     total energy              =   -1420.79097875 Ry
     estimated scf accuracy    <       0.00000030 Ry

     iteration # 15     ecut=    20.00 Ry     beta= 0.50
     Davidson diagonalization with overlap
     ethr =  2.79E-10,  avg # of iterations =  9.0

     negative rho (up, down):  4.670E-06 0.000E+00

     total cpu time spent up to now is       95.0 secs

     total energy              =   -1420.79097879 Ry
     estimated scf accuracy    <       0.00000219 Ry

     iteration # 16     ecut=    20.00 Ry     beta= 0.50
     Davidson diagonalization with overlap
     ethr =  2.79E-10,  avg # of iterations =  7.0

     negative rho (up, down):  1.195E-05 0.000E+00

     total cpu time spent up to now is       96.4 secs

     total energy              =   -1420.79097876 Ry
     estimated scf accuracy    <       0.00000008 Ry

     iteration # 17     ecut=    20.00 Ry     beta= 0.50
     Davidson diagonalization with overlap
     ethr =  7.64E-11,  avg # of iterations =  2.0

     negative rho (up, down):  5.526E-05 0.000E+00

     total cpu time spent up to now is       97.8 secs

     total energy              =   -1420.79097917 Ry
     estimated scf accuracy    <       0.00000006 Ry

     iteration # 18     ecut=    20.00 Ry     beta= 0.50
     Davidson diagonalization with overlap
     ethr =  5.38E-11,  avg # of iterations =  2.0

     negative rho (up, down):  8.303E-05 0.000E+00

     total cpu time spent up to now is       99.1 secs

     total energy              =   -1420.79097963 Ry
     estimated scf accuracy    <       0.00000003 Ry

     iteration # 19     ecut=    20.00 Ry     beta= 0.50
     Davidson diagonalization with overlap
     ethr =  2.92E-11,  avg # of iterations =  5.0

     negative rho (up, down):  8.482E-05 0.000E+00

     total cpu time spent up to now is      100.4 secs

     total energy              =   -1420.79097978 Ry
     estimated scf accuracy    <       0.00000003 Ry

     iteration # 20     ecut=    20.00 Ry     beta= 0.50
     Davidson diagonalization with overlap
     ethr =  2.63E-11,  avg # of iterations =  2.0

     negative rho (up, down):  1.054E-04 0.000E+00

     total cpu time spent up to now is      101.7 secs

     End of self-consistent calculation

          k = 0.0000 0.0000 0.0000 (  8553 PWs)   bands (ev):

   -10.4315  -9.0513  -8.4318  -8.4316  -8.4316  -8.4314  -7.0805  -7.0667
    -7.0666  -7.0666  -7.0665  -6.4622  -6.4622  -6.4622  -6.4621  -5.1178
    -5.1178  -5.1178  -5.1178  -5.1114  -5.1114  -5.1114  -5.1114  -4.1942
    -3.1859  -3.1858  -3.1858  -3.1858  -2.6069  -2.6069  -2.6069  -2.6068
    -2.2470  -2.2468  -2.2468  -2.2467  -1.8948  -1.3128  -1.3127  -1.3125
    -1.3125  -1.2845  -1.2844  -1.2844  -1.2844  -0.3974  -0.3974  -0.3972
    -0.3972  -0.0338  -0.0338  -0.0336  -0.0336  -0.0136  -0.0135  -0.0135
    -0.0133   0.1588   0.1588   0.1588   0.1589   0.6385   0.6386   0.6386
     0.6386

     the Fermi energy is     0.0485 ev

!    total energy              =   -1420.79097977 Ry

     total all-electron energy =    -17481.931117 Ry
     estimated scf accuracy    <       0.00000001 Ry
     smearing contrib. (-TS)   =      -0.14648513 Ry
     internal energy E=F+TS    =   -1420.64449464 Ry

     The total energy is F=E-TS. E is the sum of the following terms:
     one-electron contribution =   -1556.83106424 Ry
     hartree contribution      =     805.25700603 Ry
     xc contribution           =     -91.18257651 Ry
     ewald contribution        =     670.49229627 Ry
     one-center paw contrib.   =   -1248.38015620 Ry

     convergence has been achieved in  20 iterations

     negative rho (up, down):  1.054E-04 0.000E+00

     Forces acting on atoms (cartesian axes, Ry/au):

     atom    1 type  1   force =     0.00000000    0.00000000    0.01374009
     atom    2 type  1   force =     0.00000000    0.00000004    0.01373197
     atom    3 type  1   force =     0.00000000   -0.00000004    0.01373197
     atom    4 type  1   force =     0.00000004   -0.00000000    0.01373197
     atom    5 type  1   force =    -0.00000150   -0.00000150    0.01373519
     atom    6 type  1   force =    -0.00000150    0.00000150    0.01373519
     atom    7 type  1   force =    -0.00000004    0.00000000    0.01373197
     atom    8 type  1   force =     0.00000150   -0.00000150    0.01373519
     atom    9 type  1   force =     0.00000150    0.00000150    0.01373519
     atom   10 type  1   force =    -0.00000511   -0.00000511   -0.00924776
     atom   11 type  1   force =     0.00000631    0.00000000   -0.00926006
     atom   12 type  1   force =    -0.00000511    0.00000511   -0.00924776
     atom   13 type  1   force =    -0.00000000    0.00000631   -0.00926006
     atom   14 type  1   force =     0.00000000    0.00000000   -0.00923751
     atom   15 type  1   force =     0.00000000   -0.00000631   -0.00926006
     atom   16 type  1   force =     0.00000511   -0.00000511   -0.00924776
     atom   17 type  1   force =    -0.00000631   -0.00000000   -0.00926006
     atom   18 type  1   force =     0.00000511    0.00000511   -0.00924776
     atom   19 type  1   force =     0.00000000    0.00000000    0.01392721
     atom   20 type  1   force =    -0.00000000   -0.00001096    0.01397343
     atom   21 type  1   force =     0.00000000    0.00001096    0.01397343
     atom   22 type  1   force =    -0.00001096   -0.00000000    0.01397343
     atom   23 type  1   force =     0.00000555    0.00000555    0.01396125
     atom   24 type  1   force =     0.00000555   -0.00000555    0.01396125
     atom   25 type  1   force =     0.00001096    0.00000000    0.01397343
     atom   26 type  1   force =    -0.00000555    0.00000555    0.01396125
     atom   27 type  1   force =    -0.00000555   -0.00000555    0.01396125
     atom   28 type  1   force =     0.00000076    0.00000076   -0.01844544
     atom   29 type  1   force =     0.00000105   -0.00000000   -0.01844389
     atom   30 type  1   force =     0.00000076   -0.00000076   -0.01844544
     atom   31 type  1   force =     0.00000000    0.00000105   -0.01844389
     atom   32 type  1   force =     0.00000000    0.00000000   -0.01844854
     atom   33 type  1   force =    -0.00000000   -0.00000105   -0.01844389
     atom   34 type  1   force =    -0.00000076    0.00000076   -0.01844544
     atom   35 type  1   force =    -0.00000105    0.00000000   -0.01844389
     atom   36 type  1   force =    -0.00000076   -0.00000076   -0.01844544

     Total force =     0.069402     Total SCF correction =     0.000064
     Energy error            =      5.7E-03
     Gradient error          =      1.8E-02

     number of scf cycles    =   3
     number of bfgs steps    =   2

     energy   old            =   -1420.7852871559 Ry
     energy   new            =   -1420.7909797730 Ry

     CASE: energy  _new < energy  _old

     new trust radius        =       0.0315385110 bohr
     new conv_thr            =       0.0000000184 Ry


ATOMIC_POSITIONS (alat)
Al            0.0000000000        0.0000000000        0.0000000000    0   0   0
Al            0.0000000000        0.9999999399        0.0000000000    0   0   0
Al            0.0000000000        1.9999998798        0.0000000000    0   0   0
Al            0.9999999399        0.0000000000        0.0000000000    0   0   0
Al            0.9999999399        0.9999999399        0.0000000000    0   0   0
Al            0.9999999399        1.9999998798        0.0000000000    0   0   0
Al            1.9999998798        0.0000000000        0.0000000000    0   0   0
Al            1.9999998798        0.9999999399        0.0000000000    0   0   0
Al            1.9999998798        1.9999998798        0.0000000000    0   0   0
Al            0.4999999699        0.4999999699        0.7071067265    0   0   0
Al            0.4999999699        1.4999999098        0.7071067265    0   0   0
Al            0.4999999699        2.4999998497        0.7071067265    0   0   0
Al            1.4999999098        0.4999999699        0.7071067265    0   0   0
Al            1.4999999098        1.4999999098        0.7071067265    0   0   0
Al            1.4999999098        2.4999998497        0.7071067265    0   0   0
Al            2.4999998497        0.4999999699        0.7071067265    0   0   0
Al            2.4999998497        1.4999999098        0.7071067265    0   0   0
Al            2.4999998497        2.4999998497        0.7071067265    0   0   0
Al            0.0000000000        0.0000000000        1.4075797698    0   0   1
Al            0.0000000000        0.9999999399        1.4074887745    0   0   1
Al            0.0000000000        1.9999998798        1.4074887745    0   0   1
Al            0.9999999399        0.0000000000        1.4074887745    0   0   1
Al            0.9999999399        0.9999999399        1.4075125564    0   0   1
Al            0.9999999399        1.9999998798        1.4075125564    0   0   1
Al            1.9999998798        0.0000000000        1.4074887745    0   0   1
Al            1.9999998798        0.9999999399        1.4075125564    0   0   1
Al            1.9999998798        1.9999998798        1.4075125564    0   0   1
Al            0.4999999699        0.4999999699        2.1357157338    0   0   1
Al            0.4999999699        1.4999999098        2.1355446596    0   0   1
Al            0.4999999699        2.4999998497        2.1357157338    0   0   1
Al            1.4999999098        0.4999999699        2.1355446596    0   0   1
Al            1.4999999098        1.4999999098        2.1359437505    0   0   1
Al            1.4999999098        2.4999998497        2.1355446596    0   0   1
Al            2.4999998497        0.4999999699        2.1357157338    0   0   1
Al            2.4999998497        1.4999999098        2.1355446596    0   0   1
Al            2.4999998497        2.4999998497        2.1357157338    0   0   1



     Writing output data file ./tmp/Al.save/
     NEW-OLD atomic charge density approx. for the potential

     negative rho (up, down):  1.112E-04 0.000E+00

     total cpu time spent up to now is      104.1 secs

     Self-consistent Calculation

     iteration #  1     ecut=    20.00 Ry     beta= 0.50
     Davidson diagonalization with overlap
     ethr =  1.00E-06,  avg # of iterations =  9.0

     negative rho (up, down):  1.108E-04 0.000E+00

     total cpu time spent up to now is      106.1 secs

     total energy              =   -1420.79882295 Ry
     estimated scf accuracy    <       0.01142236 Ry

     iteration #  2     ecut=    20.00 Ry     beta= 0.50
     Davidson diagonalization with overlap
     ethr =  1.06E-05,  avg # of iterations =  1.0

     negative rho (up, down):  1.143E-04 0.000E+00

     total cpu time spent up to now is      107.5 secs

     total energy              =   -1420.79872777 Ry
     estimated scf accuracy    <       0.00212098 Ry

     iteration #  3     ecut=    20.00 Ry     beta= 0.50
     Davidson diagonalization with overlap
     ethr =  1.96E-06,  avg # of iterations =  6.0

     negative rho (up, down):  1.086E-04 0.000E+00

     total cpu time spent up to now is      109.0 secs

     total energy              =   -1420.79896355 Ry
     estimated scf accuracy    <       0.00024479 Ry

     iteration #  4     ecut=    20.00 Ry     beta= 0.50
     Davidson diagonalization with overlap
     ethr =  2.27E-07,  avg # of iterations =  5.0

     negative rho (up, down):  9.531E-05 0.000E+00

     total cpu time spent up to now is      110.5 secs

     total energy              =   -1420.79898272 Ry
     estimated scf accuracy    <       0.00014475 Ry

     iteration #  5     ecut=    20.00 Ry     beta= 0.50
     Davidson diagonalization with overlap
     ethr =  1.34E-07,  avg # of iterations =  7.0

     negative rho (up, down):  9.126E-05 0.000E+00

     total cpu time spent up to now is      112.0 secs

     total energy              =   -1420.79897476 Ry
     estimated scf accuracy    <       0.00075480 Ry

     iteration #  6     ecut=    20.00 Ry     beta= 0.50
     Davidson diagonalization with overlap
     ethr =  1.34E-07,  avg # of iterations =  6.0

     negative rho (up, down):  7.646E-05 0.000E+00

     total cpu time spent up to now is      113.4 secs

     total energy              =   -1420.79900538 Ry
     estimated scf accuracy    <       0.00001338 Ry

     iteration #  7     ecut=    20.00 Ry     beta= 0.50
     Davidson diagonalization with overlap
     ethr =  1.24E-08,  avg # of iterations =  9.0

     negative rho (up, down):  5.900E-05 0.000E+00

     total cpu time spent up to now is      115.0 secs

     total energy              =   -1420.79900867 Ry
     estimated scf accuracy    <       0.00003341 Ry

     iteration #  8     ecut=    20.00 Ry     beta= 0.50
     Davidson diagonalization with overlap
     ethr =  1.24E-08,  avg # of iterations =  1.0

     negative rho (up, down):  3.986E-05 0.000E+00

     total cpu time spent up to now is      116.4 secs

     total energy              =   -1420.79900628 Ry
     estimated scf accuracy    <       0.00001546 Ry

     iteration #  9     ecut=    20.00 Ry     beta= 0.50
     Davidson diagonalization with overlap
     ethr =  1.24E-08,  avg # of iterations =  2.0

     negative rho (up, down):  2.289E-05 0.000E+00

     total cpu time spent up to now is      117.8 secs

     total energy              =   -1420.79900681 Ry
     estimated scf accuracy    <       0.00000173 Ry

     iteration # 10     ecut=    20.00 Ry     beta= 0.50
     Davidson diagonalization with overlap
     ethr =  1.60E-09,  avg # of iterations =  7.0

     negative rho (up, down):  4.177E-06 0.000E+00

     total cpu time spent up to now is      119.3 secs

     total energy              =   -1420.79900610 Ry
     estimated scf accuracy    <       0.00000546 Ry

     iteration # 11     ecut=    20.00 Ry     beta= 0.50
     Davidson diagonalization with overlap
     ethr =  1.60E-09,  avg # of iterations =  2.0

     negative rho (up, down):  1.227E-06 0.000E+00

     total cpu time spent up to now is      120.6 secs

     total energy              =   -1420.79900636 Ry
     estimated scf accuracy    <       0.00000056 Ry

     iteration # 12     ecut=    20.00 Ry     beta= 0.50
     Davidson diagonalization with overlap
     ethr =  5.23E-10,  avg # of iterations =  8.0

     negative rho (up, down):  3.303E-07 0.000E+00

     total cpu time spent up to now is      122.8 secs

     total energy              =   -1420.79900690 Ry
     estimated scf accuracy    <       0.00000285 Ry

     iteration # 13     ecut=    20.00 Ry     beta= 0.50
     Davidson diagonalization with overlap
     ethr =  5.23E-10,  avg # of iterations =  7.0

     negative rho (up, down):  2.547E-07 0.000E+00

     total cpu time spent up to now is      124.3 secs

     total energy              =   -1420.79900731 Ry
     estimated scf accuracy    <       0.00000145 Ry

     iteration # 14     ecut=    20.00 Ry     beta= 0.50
     Davidson diagonalization with overlap
     ethr =  5.23E-10,  avg # of iterations =  2.0

     negative rho (up, down):  1.222E-05 0.000E+00

     total cpu time spent up to now is      125.7 secs

     total energy              =   -1420.79900734 Ry
     estimated scf accuracy    <       0.00000029 Ry

     iteration # 15     ecut=    20.00 Ry     beta= 0.50
     Davidson diagonalization with overlap
     ethr =  2.70E-10,  avg # of iterations =  5.0

     negative rho (up, down):  3.829E-05 0.000E+00

     total cpu time spent up to now is      127.2 secs

     total energy              =   -1420.79900836 Ry
     estimated scf accuracy    <       0.00000065 Ry

     iteration # 16     ecut=    20.00 Ry     beta= 0.50
     Davidson diagonalization with overlap
     ethr =  2.70E-10,  avg # of iterations =  5.0

     negative rho (up, down):  1.233E-04 0.000E+00

     total cpu time spent up to now is      128.8 secs

     total energy              =   -1420.79900984 Ry
     estimated scf accuracy    <       0.00000021 Ry

     iteration # 17     ecut=    20.00 Ry     beta= 0.50
     Davidson diagonalization with overlap
     ethr =  1.92E-10,  avg # of iterations =  2.0

     negative rho (up, down):  1.414E-04 0.000E+00

     total cpu time spent up to now is      130.1 secs

     total energy              =   -1420.79901129 Ry
     estimated scf accuracy    <       0.00000016 Ry

     iteration # 18     ecut=    20.00 Ry     beta= 0.50
     Davidson diagonalization with overlap
     ethr =  1.50E-10,  avg # of iterations =  2.0

     negative rho (up, down):  1.294E-04 0.000E+00

     total cpu time spent up to now is      131.5 secs

     total energy              =   -1420.79901148 Ry
     estimated scf accuracy    <       0.00000010 Ry

     iteration # 19     ecut=    20.00 Ry     beta= 0.50
     Davidson diagonalization with overlap
     ethr =  9.42E-11,  avg # of iterations =  2.0

     negative rho (up, down):  1.175E-04 0.000E+00

     total cpu time spent up to now is      132.9 secs

     total energy              =   -1420.79901142 Ry
     estimated scf accuracy    <       0.00000006 Ry

     iteration # 20     ecut=    20.00 Ry     beta= 0.50
     Davidson diagonalization with overlap
     ethr =  5.36E-11,  avg # of iterations =  2.0

     negative rho (up, down):  1.072E-04 0.000E+00

     total cpu time spent up to now is      134.2 secs

     End of self-consistent calculation

          k = 0.0000 0.0000 0.0000 (  8553 PWs)   bands (ev):

   -10.4323  -9.0723  -8.4326  -8.4324  -8.4324  -8.4322  -7.0879  -7.0877
    -7.0877  -7.0876  -7.0634  -6.4628  -6.4628  -6.4628  -6.4628  -5.1329
    -5.1329  -5.1329  -5.1329  -5.1009  -5.1008  -5.1008  -5.1008  -4.1806
    -3.1689  -3.1689  -3.1689  -3.1689  -2.6071  -2.6071  -2.6071  -2.6070
    -2.2336  -2.2335  -2.2335  -2.2333  -1.8819  -1.3127  -1.3127  -1.3124
    -1.3124  -1.3065  -1.3064  -1.3064  -1.3064  -0.3854  -0.3854  -0.3852
    -0.3852  -0.0594  -0.0594  -0.0592  -0.0592  -0.0029  -0.0028  -0.0028
    -0.0027   0.1592   0.1592   0.1593   0.1593   0.6549   0.6550   0.6550
     0.6550

     the Fermi energy is     0.0487 ev

!    total energy              =   -1420.79901149 Ry

     total all-electron energy =    -17481.939148 Ry
     estimated scf accuracy    <       0.00000001 Ry
     smearing contrib. (-TS)   =      -0.14900262 Ry
     internal energy E=F+TS    =   -1420.65000887 Ry

     The total energy is F=E-TS. E is the sum of the following terms:
     one-electron contribution =   -1559.87989864 Ry
     hartree contribution      =     806.80340722 Ry
     xc contribution           =     -91.21942688 Ry
     ewald contribution        =     672.02879000 Ry
     one-center paw contrib.   =   -1248.38288057 Ry

     convergence has been achieved in  20 iterations

     negative rho (up, down):  1.072E-04 0.000E+00

     Forces acting on atoms (cartesian axes, Ry/au):

     atom    1 type  1   force =     0.00000000    0.00000000    0.01456606
     atom    2 type  1   force =     0.00000000    0.00000052    0.01455889
     atom    3 type  1   force =     0.00000000   -0.00000052    0.01455889
     atom    4 type  1   force =     0.00000052    0.00000000    0.01455889
     atom    5 type  1   force =    -0.00000122   -0.00000122    0.01456151
     atom    6 type  1   force =    -0.00000122    0.00000122    0.01456151
     atom    7 type  1   force =    -0.00000052    0.00000000    0.01455889
     atom    8 type  1   force =     0.00000122   -0.00000122    0.01456151
     atom    9 type  1   force =     0.00000122    0.00000122    0.01456151
     atom   10 type  1   force =    -0.00000470   -0.00000470   -0.00922371
     atom   11 type  1   force =     0.00000565    0.00000000   -0.00923530
     atom   12 type  1   force =    -0.00000470    0.00000470   -0.00922371
     atom   13 type  1   force =    -0.00000000    0.00000565   -0.00923530
     atom   14 type  1   force =     0.00000000    0.00000000   -0.00921299
     atom   15 type  1   force =     0.00000000   -0.00000565   -0.00923530
     atom   16 type  1   force =     0.00000470   -0.00000470   -0.00922371
     atom   17 type  1   force =    -0.00000565    0.00000000   -0.00923530
     atom   18 type  1   force =     0.00000470    0.00000470   -0.00922371
     atom   19 type  1   force =     0.00000000    0.00000000    0.01249421
     atom   20 type  1   force =     0.00000000   -0.00001237    0.01253489
     atom   21 type  1   force =     0.00000000    0.00001237    0.01253489
     atom   22 type  1   force =    -0.00001237    0.00000000    0.01253489
     atom   23 type  1   force =     0.00000641    0.00000641    0.01252467
     atom   24 type  1   force =     0.00000641   -0.00000641    0.01252467
     atom   25 type  1   force =     0.00001237   -0.00000000    0.01253489
     atom   26 type  1   force =    -0.00000641    0.00000641    0.01252467
     atom   27 type  1   force =    -0.00000641   -0.00000641    0.01252467
     atom   28 type  1   force =     0.00000101    0.00000101   -0.01786049
     atom   29 type  1   force =     0.00000131    0.00000000   -0.01785511
     atom   30 type  1   force =     0.00000101   -0.00000101   -0.01786049
     atom   31 type  1   force =     0.00000000    0.00000131   -0.01785511
     atom   32 type  1   force =     0.00000000    0.00000000   -0.01786867
     atom   33 type  1   force =    -0.00000000   -0.00000131   -0.01785511
     atom   34 type  1   force =    -0.00000101    0.00000101   -0.01786049
     atom   35 type  1   force =    -0.00000131    0.00000000   -0.01785511
     atom   36 type  1   force =    -0.00000101   -0.00000101   -0.01786049

     Total force =     0.065441     Total SCF correction =     0.000028
     Energy error            =      8.0E-03
     Gradient error          =      1.8E-02

     number of scf cycles    =   4
     number of bfgs steps    =   3

     energy   old            =   -1420.7909797730 Ry
     energy   new            =   -1420.7990114879 Ry

     CASE: energy  _new < energy  _old

     new trust radius        =       0.0473077665 bohr
     new conv_thr            =       0.0000000179 Ry


ATOMIC_POSITIONS (alat)
Al            0.0000000000        0.0000000000        0.0000000000    0   0   0
Al            0.0000000000        0.9999999399        0.0000000000    0   0   0
Al            0.0000000000        1.9999998798        0.0000000000    0   0   0
Al            0.9999999399        0.0000000000        0.0000000000    0   0   0
Al            0.9999999399        0.9999999399        0.0000000000    0   0   0
Al            0.9999999399        1.9999998798        0.0000000000    0   0   0
Al            1.9999998798        0.0000000000        0.0000000000    0   0   0
Al            1.9999998798        0.9999999399        0.0000000000    0   0   0
Al            1.9999998798        1.9999998798        0.0000000000    0   0   0
Al            0.4999999699        0.4999999699        0.7071067265    0   0   0
Al            0.4999999699        1.4999999098        0.7071067265    0   0   0
Al            0.4999999699        2.4999998497        0.7071067265    0   0   0
Al            1.4999999098        0.4999999699        0.7071067265    0   0   0
Al            1.4999999098        1.4999999098        0.7071067265    0   0   0
Al            1.4999999098        2.4999998497        0.7071067265    0   0   0
Al            2.4999998497        0.4999999699        0.7071067265    0   0   0
Al            2.4999998497        1.4999999098        0.7071067265    0   0   0
Al            2.4999998497        2.4999998497        0.7071067265    0   0   0
Al            0.0000000000        0.0000000000        1.4138557227    0   0   1
Al            0.0000000000        0.9999999399        1.4137853197    0   0   1
Al            0.0000000000        1.9999998798        1.4137853197    0   0   1
Al            0.9999999399        0.0000000000        1.4137853197    0   0   1
Al            0.9999999399        0.9999999399        1.4138037851    0   0   1
Al            0.9999999399        1.9999998798        1.4138037851    0   0   1
Al            1.9999998798        0.0000000000        1.4137853197    0   0   1
Al            1.9999998798        0.9999999399        1.4138037851    0   0   1
Al            1.9999998798        1.9999998798        1.4138037851    0   0   1
Al            0.4999999699        0.4999999699        2.1269491759    0   0   1
Al            0.4999999699        1.4999999098        2.1267802441    0   0   1
Al            0.4999999699        2.4999998497        2.1269491759    0   0   1
Al            1.4999999098        0.4999999699        2.1267802441    0   0   1
Al            1.4999999098        1.4999999098        2.1271739782    0   0   1
Al            1.4999999098        2.4999998497        2.1267802441    0   0   1
Al            2.4999998497        0.4999999699        2.1269491759    0   0   1
Al            2.4999998497        1.4999999098        2.1267802441    0   0   1
Al            2.4999998497        2.4999998497        2.1269491759    0   0   1



     Writing output data file ./tmp/Al.save/
     NEW-OLD atomic charge density approx. for the potential

     negative rho (up, down):  1.164E-04 0.000E+00

     total cpu time spent up to now is      136.7 secs

     Self-consistent Calculation

     iteration #  1     ecut=    20.00 Ry     beta= 0.50
     Davidson diagonalization with overlap
     ethr =  1.00E-06,  avg # of iterations = 11.0

     negative rho (up, down):  1.090E-04 0.000E+00

     total cpu time spent up to now is      138.7 secs

     total energy              =   -1420.80954282 Ry
     estimated scf accuracy    <       0.02285155 Ry

     iteration #  2     ecut=    20.00 Ry     beta= 0.50
     Davidson diagonalization with overlap
     ethr =  2.12E-05,  avg # of iterations =  1.0

     negative rho (up, down):  1.038E-04 0.000E+00

     total cpu time spent up to now is      140.2 secs

     total energy              =   -1420.80935517 Ry
     estimated scf accuracy    <       0.00416809 Ry

     iteration #  3     ecut=    20.00 Ry     beta= 0.50
     Davidson diagonalization with overlap
     ethr =  3.86E-06,  avg # of iterations =  7.0

     negative rho (up, down):  9.277E-05 0.000E+00

     total cpu time spent up to now is      141.8 secs

     total energy              =   -1420.80984009 Ry
     estimated scf accuracy    <       0.00063263 Ry

     iteration #  4     ecut=    20.00 Ry     beta= 0.50
     Davidson diagonalization with overlap
     ethr =  5.86E-07,  avg # of iterations =  4.0

     negative rho (up, down):  6.347E-05 0.000E+00

     total cpu time spent up to now is      143.2 secs

     total energy              =   -1420.80984159 Ry
     estimated scf accuracy    <       0.00021419 Ry

     iteration #  5     ecut=    20.00 Ry     beta= 0.50
     Davidson diagonalization with overlap
     ethr =  1.98E-07,  avg # of iterations =  8.0

     negative rho (up, down):  5.704E-05 0.000E+00

     total cpu time spent up to now is      144.7 secs

     total energy              =   -1420.80986344 Ry
     estimated scf accuracy    <       0.00061173 Ry

     iteration #  6     ecut=    20.00 Ry     beta= 0.50
     Davidson diagonalization with overlap
     ethr =  1.98E-07,  avg # of iterations =  6.0

     negative rho (up, down):  3.900E-05 0.000E+00

     total cpu time spent up to now is      146.2 secs

     total energy              =   -1420.80988751 Ry
     estimated scf accuracy    <       0.00001861 Ry

     iteration #  7     ecut=    20.00 Ry     beta= 0.50
     Davidson diagonalization with overlap
     ethr =  1.72E-08,  avg # of iterations =  6.0

     negative rho (up, down):  1.542E-05 0.000E+00

     total cpu time spent up to now is      147.7 secs

     total energy              =   -1420.80988745 Ry
     estimated scf accuracy    <       0.00001172 Ry

     iteration #  8     ecut=    20.00 Ry     beta= 0.50
     Davidson diagonalization with overlap
     ethr =  1.09E-08,  avg # of iterations =  2.0

     negative rho (up, down):  1.253E-05 0.000E+00

     total cpu time spent up to now is      149.2 secs

     total energy              =   -1420.80988824 Ry
     estimated scf accuracy    <       0.00000543 Ry

     iteration #  9     ecut=    20.00 Ry     beta= 0.50
     Davidson diagonalization with overlap
     ethr =  5.03E-09,  avg # of iterations =  2.0

     negative rho (up, down):  1.859E-06 0.000E+00

     total cpu time spent up to now is      150.7 secs

     total energy              =   -1420.80988827 Ry
     estimated scf accuracy    <       0.00000561 Ry

     iteration # 10     ecut=    20.00 Ry     beta= 0.50
     Davidson diagonalization with overlap
     ethr =  5.03E-09,  avg # of iterations =  7.0

     negative rho (up, down):  1.301E-07 0.000E+00

     total cpu time spent up to now is      152.3 secs

     total energy              =   -1420.80988412 Ry
     estimated scf accuracy    <       0.00005458 Ry

     iteration # 11     ecut=    20.00 Ry     beta= 0.50
     Davidson diagonalization with overlap
     ethr =  5.03E-09,  avg # of iterations =  6.0

     negative rho (up, down):  3.847E-08 0.000E+00

     total cpu time spent up to now is      153.7 secs

     total energy              =   -1420.80988410 Ry
     estimated scf accuracy    <       0.00001361 Ry

     iteration # 12     ecut=    20.00 Ry     beta= 0.50
     Davidson diagonalization with overlap
     ethr =  5.03E-09,  avg # of iterations =  1.0

     negative rho (up, down):  2.431E-08 0.000E+00

     total cpu time spent up to now is      155.2 secs

     total energy              =   -1420.80988386 Ry
     estimated scf accuracy    <       0.00001745 Ry

     iteration # 13     ecut=    20.00 Ry     beta= 0.50
     Davidson diagonalization with overlap
     ethr =  5.03E-09,  avg # of iterations =  2.0

     negative rho (up, down):  4.136E-08 0.000E+00

     total cpu time spent up to now is      156.5 secs

     total energy              =   -1420.80988574 Ry
     estimated scf accuracy    <       0.00000484 Ry

     iteration # 14     ecut=    20.00 Ry     beta= 0.50
     Davidson diagonalization with overlap
     ethr =  4.49E-09,  avg # of iterations =  6.0

     negative rho (up, down):  4.390E-08 0.000E+00

     total cpu time spent up to now is      158.0 secs

     total energy              =   -1420.80988556 Ry
     estimated scf accuracy    <       0.00001208 Ry

     iteration # 15     ecut=    20.00 Ry     beta= 0.50
     Davidson diagonalization with overlap
     ethr =  4.49E-09,  avg # of iterations =  2.0

     negative rho (up, down):  3.858E-06 0.000E+00

     total cpu time spent up to now is      159.5 secs

     total energy              =   -1420.80988589 Ry
     estimated scf accuracy    <       0.00000127 Ry

     iteration # 16     ecut=    20.00 Ry     beta= 0.50
     Davidson diagonalization with overlap
     ethr =  1.18E-09,  avg # of iterations =  2.0

     negative rho (up, down):  2.730E-05 0.000E+00

     total cpu time spent up to now is      160.9 secs

     total energy              =   -1420.80988642 Ry
     estimated scf accuracy    <       0.00000191 Ry

     iteration # 17     ecut=    20.00 Ry     beta= 0.50
     Davidson diagonalization with overlap
     ethr =  1.18E-09,  avg # of iterations =  2.0

     negative rho (up, down):  1.921E-04 0.000E+00

     total cpu time spent up to now is      162.3 secs

     total energy              =   -1420.80989043 Ry
     estimated scf accuracy    <       0.00000229 Ry

     iteration # 18     ecut=    20.00 Ry     beta= 0.50
     Davidson diagonalization with overlap
     ethr =  1.18E-09,  avg # of iterations =  6.0

     negative rho (up, down):  2.459E-04 0.000E+00

     total cpu time spent up to now is      163.8 secs

     total energy              =   -1420.80989293 Ry
     estimated scf accuracy    <       0.00000153 Ry

     iteration # 19     ecut=    20.00 Ry     beta= 0.50
     Davidson diagonalization with overlap
     ethr =  1.18E-09,  avg # of iterations =  2.0

     negative rho (up, down):  2.484E-04 0.000E+00

     total cpu time spent up to now is      165.3 secs

     total energy              =   -1420.80989574 Ry
     estimated scf accuracy    <       0.00000024 Ry

     iteration # 20     ecut=    20.00 Ry     beta= 0.50
     Davidson diagonalization with overlap
     ethr =  2.22E-10,  avg # of iterations =  5.0

     negative rho (up, down):  2.116E-04 0.000E+00

     total cpu time spent up to now is      166.8 secs

     total energy              =   -1420.80989625 Ry
     estimated scf accuracy    <       0.00000226 Ry

     iteration # 21     ecut=    20.00 Ry     beta= 0.50
     Davidson diagonalization with overlap
     ethr =  2.22E-10,  avg # of iterations =  1.0

     negative rho (up, down):  1.508E-04 0.000E+00

     total cpu time spent up to now is      168.3 secs

     total energy              =   -1420.80989657 Ry
     estimated scf accuracy    <       0.00000250 Ry

     iteration # 22     ecut=    20.00 Ry     beta= 0.50
     Davidson diagonalization with overlap
     ethr =  2.22E-10,  avg # of iterations =  2.0

     negative rho (up, down):  1.321E-04 0.000E+00

     total cpu time spent up to now is      169.7 secs

     total energy              =   -1420.80989671 Ry
     estimated scf accuracy    <       0.00000048 Ry

     iteration # 23     ecut=    20.00 Ry     beta= 0.50
     Davidson diagonalization with overlap
     ethr =  2.22E-10,  avg # of iterations =  5.0

     negative rho (up, down):  1.390E-04 0.000E+00

     total cpu time spent up to now is      171.2 secs

     total energy              =   -1420.80989672 Ry
     estimated scf accuracy    <       0.00000002 Ry

     iteration # 24     ecut=    20.00 Ry     beta= 0.50
     Davidson diagonalization with overlap
     ethr =  1.70E-11,  avg # of iterations =  7.0

     negative rho (up, down):  1.075E-04 0.000E+00

     total cpu time spent up to now is      172.7 secs

     End of self-consistent calculation

          k = 0.0000 0.0000 0.0000 (  8553 PWs)   bands (ev):
[...]
     atom   35 type  1   force =     0.00003290   -0.00000000   -0.00024323
     atom   36 type  1   force =    -0.00002654   -0.00002654    0.00015312

     Total force =     0.000949     Total SCF correction =     0.000009
     Energy error            =      1.3E-04
     Gradient error          =      6.1E-04

     number of scf cycles    =  19
     number of bfgs steps    =  15

     energy   old            =   -1420.9093860090 Ry
     energy   new            =   -1420.9095123855 Ry

     CASE: energy  _new < energy  _old

     new trust radius        =       0.0005303887 bohr
     new conv_thr            =       0.0000000010 Ry


ATOMIC_POSITIONS (alat)
Al            0.0000000000        0.0000000000        0.0000000000    0   0   0
Al            0.0000000000        0.9999999536        0.0000000000    0   0   0
Al            0.0000000000        1.9999999073        0.0000000000    0   0   0
Al            0.9999999536        0.0000000000        0.0000000000    0   0   0
Al            0.9999999536        0.9999999536        0.0000000000    0   0   0
Al            0.9999999536        1.9999999073        0.0000000000    0   0   0
Al            1.9999999073        0.0000000000        0.0000000000    0   0   0
Al            1.9999999073        0.9999999536        0.0000000000    0   0   0
Al            1.9999999073        1.9999999073        0.0000000000    0   0   0
Al            0.4999999768        0.4999999768        0.7071067362    0   0   0
Al            0.4999999768        1.4999999304        0.7071067362    0   0   0
Al            0.4999999768        2.4999998840        0.7071067362    0   0   0
Al            1.4999999304        0.4999999768        0.7071067362    0   0   0
Al            1.4999999304        1.4999999304        0.7071067362    0   0   0
Al            1.4999999304        2.4999998840        0.7071067362    0   0   0
Al            2.4999998840        0.4999999768        0.7071067362    0   0   0
Al            2.4999998840        1.4999999304        0.7071067362    0   0   0
Al            2.4999998840        2.4999998840        0.7071067362    0   0   0
Al            0.0000000000        0.0000000000        1.3174613175    0   0   1
Al            0.0000000000        0.9999999536        1.3171835811    0   0   1
Al            0.0000000000        1.9999999073        1.3171835811    0   0   1
Al            0.9999999536        0.0000000000        1.3171835811    0   0   1
Al            0.9999999536        0.9999999536        1.3172744723    0   0   1
Al            0.9999999536        1.9999999073        1.3172744723    0   0   1
Al            1.9999999073        0.0000000000        1.3171835811    0   0   1
Al            1.9999999073        0.9999999536        1.3172744723    0   0   1
Al            1.9999999073        1.9999999073        1.3172744723    0   0   1
Al            0.4999999768        0.4999999768        1.9037645973    0   0   1
Al            0.4999999768        1.4999999304        1.9045125757    0   0   1
Al            0.4999999768        2.4999998840        1.9037645973    0   0   1
Al            1.4999999304        0.4999999768        1.9045125757    0   0   1
Al            1.4999999304        1.4999999304        1.9028110288    0   0   1
Al            1.4999999304        2.4999998840        1.9045125757    0   0   1
Al            2.4999998840        0.4999999768        1.9037645973    0   0   1
Al            2.4999998840        1.4999999304        1.9045125757    0   0   1
Al            2.4999998840        2.4999998840        1.9037645973    0   0   1



     Writing output data file ./tmp/Al.save/
     NEW-OLD atomic charge density approx. for the potential

     negative rho (up, down):  9.598E-05 0.000E+00

     total cpu time spent up to now is      902.7 secs

     Self-consistent Calculation

     iteration #  1     ecut=    20.00 Ry     beta= 0.50
     Davidson diagonalization with overlap
     ethr =  1.00E-06,  avg # of iterations =  2.0

     Threshold (ethr) on eigenvalues was too large:
     Diagonalizing with lowered threshold

     Davidson diagonalization with overlap
     ethr =  1.88E-11,  avg # of iterations = 13.0

     negative rho (up, down):  9.599E-05 0.000E+00

     total cpu time spent up to now is      905.6 secs

     total energy              =   -1420.90951276 Ry
     estimated scf accuracy    <       0.00000062 Ry

     iteration #  2     ecut=    20.00 Ry     beta= 0.50
     Davidson diagonalization with overlap
     ethr =  5.73E-10,  avg # of iterations =  1.0

     negative rho (up, down):  9.601E-05 0.000E+00

     total cpu time spent up to now is      907.4 secs

     total energy              =   -1420.90951273 Ry
     estimated scf accuracy    <       0.00000013 Ry

     iteration #  3     ecut=    20.00 Ry     beta= 0.50
     Davidson diagonalization with overlap
     ethr =  1.25E-10,  avg # of iterations =  2.0

     negative rho (up, down):  9.609E-05 0.000E+00

     total cpu time spent up to now is      909.0 secs

     total energy              =   -1420.90951274 Ry
     estimated scf accuracy    <          2.5E-09 Ry

     iteration #  4     ecut=    20.00 Ry     beta= 0.50
     Davidson diagonalization with overlap
     ethr =  2.27E-12,  avg # of iterations = 14.0

     negative rho (up, down):  9.608E-05 0.000E+00

     total cpu time spent up to now is      911.1 secs

     total energy              =   -1420.90951275 Ry
     estimated scf accuracy    <       0.00000005 Ry

     iteration #  5     ecut=    20.00 Ry     beta= 0.50
     Davidson diagonalization with overlap
     ethr =  2.27E-12,  avg # of iterations =  1.0

     negative rho (up, down):  9.609E-05 0.000E+00

     total cpu time spent up to now is      912.7 secs

     total energy              =   -1420.90951275 Ry
     estimated scf accuracy    <       0.00000003 Ry

     iteration #  6     ecut=    20.00 Ry     beta= 0.50
     Davidson diagonalization with overlap
     ethr =  2.27E-12,  avg # of iterations =  1.0

     negative rho (up, down):  9.609E-05 0.000E+00

     total cpu time spent up to now is      914.4 secs

     total energy              =   -1420.90951275 Ry
     estimated scf accuracy    <       0.00000005 Ry

     iteration #  7     ecut=    20.00 Ry     beta= 0.50
     Davidson diagonalization with overlap
     ethr =  2.27E-12,  avg # of iterations =  8.0

     negative rho (up, down):  9.613E-05 0.000E+00

     total cpu time spent up to now is      916.4 secs

     total energy              =   -1420.90951276 Ry
     estimated scf accuracy    <       0.00000001 Ry

     iteration #  8     ecut=    20.00 Ry     beta= 0.50
     Davidson diagonalization with overlap
     ethr =  2.27E-12,  avg # of iterations =  2.0

     negative rho (up, down):  9.622E-05 0.000E+00

     total cpu time spent up to now is      918.1 secs

     total energy              =   -1420.90951276 Ry
     estimated scf accuracy    <       0.00000002 Ry

     iteration #  9     ecut=    20.00 Ry     beta= 0.50
     Davidson diagonalization with overlap
     ethr =  2.27E-12,  avg # of iterations =  1.0

     negative rho (up, down):  9.629E-05 0.000E+00

     total cpu time spent up to now is      919.7 secs

     total energy              =   -1420.90951276 Ry
     estimated scf accuracy    <          8.9E-09 Ry

     iteration # 10     ecut=    20.00 Ry     beta= 0.50
     Davidson diagonalization with overlap
     ethr =  2.27E-12,  avg # of iterations =  2.0

     negative rho (up, down):  9.628E-05 0.000E+00

     total cpu time spent up to now is      921.2 secs

     total energy              =   -1420.90951276 Ry
     estimated scf accuracy    <          4.8E-09 Ry

     iteration # 11     ecut=    20.00 Ry     beta= 0.50
     Davidson diagonalization with overlap
     ethr =  2.27E-12,  avg # of iterations =  1.0

     negative rho (up, down):  9.631E-05 0.000E+00

     total cpu time spent up to now is      922.7 secs

     total energy              =   -1420.90951276 Ry
     estimated scf accuracy    <          5.2E-09 Ry

     iteration # 12     ecut=    20.00 Ry     beta= 0.50
     Davidson diagonalization with overlap
     ethr =  2.27E-12,  avg # of iterations =  2.0

     negative rho (up, down):  9.633E-05 0.000E+00

     total cpu time spent up to now is      924.3 secs

     total energy              =   -1420.90951276 Ry
     estimated scf accuracy    <          2.9E-09 Ry

     iteration # 13     ecut=    20.00 Ry     beta= 0.50
     Davidson diagonalization with overlap
     ethr =  2.27E-12,  avg # of iterations =  6.0

     negative rho (up, down):  9.636E-05 0.000E+00

     total cpu time spent up to now is      925.9 secs

     total energy              =   -1420.90951276 Ry
     estimated scf accuracy    <          2.0E-09 Ry

     iteration # 14     ecut=    20.00 Ry     beta= 0.50
     Davidson diagonalization with overlap
     ethr =  1.85E-12,  avg # of iterations =  2.0

     negative rho (up, down):  9.639E-05 0.000E+00

     total cpu time spent up to now is      927.5 secs

     total energy              =   -1420.90951276 Ry
     estimated scf accuracy    <          3.1E-09 Ry

     iteration # 15     ecut=    20.00 Ry     beta= 0.50
     Davidson diagonalization with overlap
     ethr =  1.85E-12,  avg # of iterations =  1.0

     negative rho (up, down):  9.652E-05 0.000E+00

     total cpu time spent up to now is      929.2 secs

     total energy              =   -1420.90951276 Ry
     estimated scf accuracy    <          1.5E-09 Ry

     iteration # 16     ecut=    20.00 Ry     beta= 0.50
     Davidson diagonalization with overlap
     ethr =  1.36E-12,  avg # of iterations =  2.0

     negative rho (up, down):  9.598E-05 0.000E+00

     total cpu time spent up to now is      930.7 secs

     End of self-consistent calculation

          k = 0.0000 0.0000 0.0000 (  8553 PWs)   bands (ev):

   -10.8912  -9.1108  -8.8986  -8.8972  -8.8972  -8.8960  -7.1338  -7.1332
    -7.1332  -7.1327  -6.9394  -6.9392  -6.9391  -6.9391  -6.7897  -5.1889
    -5.1889  -5.1888  -5.1888  -4.8392  -4.8388  -4.8388  -4.8384  -3.6361
    -3.1154  -3.1152  -3.1152  -3.1149  -2.9246  -2.9245  -2.9245  -2.9245
    -1.8700  -1.8700  -1.8683  -1.8683  -1.7062  -1.7056  -1.7056  -1.7050
    -1.3697  -1.3694  -1.3694  -1.3689  -1.2052  -0.5016  -0.5014  -0.4998
    -0.4998  -0.1672  -0.1672  -0.1663  -0.1663   0.3345   0.3345   0.3350
     0.3352   0.6472   0.6484   0.6484   0.6498   0.9338   0.9340   0.9340
     0.9340

     the Fermi energy is     0.2006 ev

!    total energy              =   -1420.90951276 Ry

     total all-electron energy =    -17482.049650 Ry
     estimated scf accuracy    <          1.8E-10 Ry
     smearing contrib. (-TS)   =      -0.05466227 Ry
     internal energy E=F+TS    =   -1420.85485048 Ry

     The total energy is F=E-TS. E is the sum of the following terms:
     one-electron contribution =   -1751.02439652 Ry
     hartree contribution      =     903.35685078 Ry
     xc contribution           =     -93.00563858 Ry
     ewald contribution        =     768.52548200 Ry
     one-center paw contrib.   =   -1248.70714817 Ry

     convergence has been achieved in  16 iterations

     negative rho (up, down):  9.598E-05 0.000E+00

     Forces acting on atoms (cartesian axes, Ry/au):

     atom    1 type  1   force =     0.00000000    0.00000000    0.03388763
     atom    2 type  1   force =     0.00000000   -0.00000530    0.03385435
     atom    3 type  1   force =    -0.00000000    0.00000530    0.03385435
     atom    4 type  1   force =    -0.00000530   -0.00000000    0.03385435
     atom    5 type  1   force =     0.00000114    0.00000114    0.03387305
     atom    6 type  1   force =     0.00000114   -0.00000114    0.03387305
     atom    7 type  1   force =     0.00000530    0.00000000    0.03385435
     atom    8 type  1   force =    -0.00000114    0.00000114    0.03387305
     atom    9 type  1   force =    -0.00000114   -0.00000114    0.03387305
     atom   10 type  1   force =    -0.00001737   -0.00001737   -0.03390161
     atom   11 type  1   force =     0.00000949    0.00000000   -0.03390404
     atom   12 type  1   force =    -0.00001737    0.00001737   -0.03390161
     atom   13 type  1   force =     0.00000000    0.00000949   -0.03390404
     atom   14 type  1   force =     0.00000000    0.00000000   -0.03391740
     atom   15 type  1   force =    -0.00000000   -0.00000949   -0.03390404
     atom   16 type  1   force =     0.00001737   -0.00001737   -0.03390161
     atom   17 type  1   force =    -0.00000949    0.00000000   -0.03390404
     atom   18 type  1   force =     0.00001737    0.00001737   -0.03390161
     atom   19 type  1   force =     0.00000000    0.00000000   -0.00027417
     atom   20 type  1   force =     0.00000000    0.00021539    0.00014416
     atom   21 type  1   force =     0.00000000   -0.00021539    0.00014416
     atom   22 type  1   force =     0.00021539   -0.00000000    0.00014416
     atom   23 type  1   force =    -0.00013430   -0.00013430   -0.00004260
     atom   24 type  1   force =    -0.00013430    0.00013430   -0.00004260
     atom   25 type  1   force =    -0.00021539    0.00000000    0.00014416
     atom   26 type  1   force =     0.00013430   -0.00013430   -0.00004260
     atom   27 type  1   force =     0.00013430    0.00013430   -0.00004260
     atom   28 type  1   force =     0.00002479    0.00002479    0.00014491
     atom   29 type  1   force =    -0.00003034    0.00000000   -0.00024107
     atom   30 type  1   force =     0.00002479   -0.00002479    0.00014491
     atom   31 type  1   force =     0.00000000   -0.00003034   -0.00024107
     atom   32 type  1   force =     0.00000000    0.00000000    0.00059529
     atom   33 type  1   force =    -0.00000000    0.00003034   -0.00024107
     atom   34 type  1   force =    -0.00002479    0.00002479    0.00014491
     atom   35 type  1   force =     0.00003034    0.00000000   -0.00024107
     atom   36 type  1   force =    -0.00002479   -0.00002479    0.00014491

     Total force =     0.000915     Total SCF correction =     0.000010
     Energy error            =      3.7E-07
     Gradient error          =      6.0E-04

     bfgs converged in  20 scf cycles and  16 bfgs steps
     (criteria: energy <  1.0E-04 Ry, force <  1.0E-03 Ry/Bohr)

     End of BFGS Geometry Optimization

     Final energy   =   -1420.9095127556 Ry

     File ./tmp/Al.bfgs deleted, as requested
Begin final coordinates

ATOMIC_POSITIONS (alat)
Al            0.0000000000        0.0000000000        0.0000000000    0   0   0
Al            0.0000000000        0.9999999536        0.0000000000    0   0   0
Al            0.0000000000        1.9999999073        0.0000000000    0   0   0
Al            0.9999999536        0.0000000000        0.0000000000    0   0   0
Al            0.9999999536        0.9999999536        0.0000000000    0   0   0
Al            0.9999999536        1.9999999073        0.0000000000    0   0   0
Al            1.9999999073        0.0000000000        0.0000000000    0   0   0
Al            1.9999999073        0.9999999536        0.0000000000    0   0   0
Al            1.9999999073        1.9999999073        0.0000000000    0   0   0
Al            0.4999999768        0.4999999768        0.7071067362    0   0   0
Al            0.4999999768        1.4999999304        0.7071067362    0   0   0
Al            0.4999999768        2.4999998840        0.7071067362    0   0   0
Al            1.4999999304        0.4999999768        0.7071067362    0   0   0
Al            1.4999999304        1.4999999304        0.7071067362    0   0   0
Al            1.4999999304        2.4999998840        0.7071067362    0   0   0
Al            2.4999998840        0.4999999768        0.7071067362    0   0   0
Al            2.4999998840        1.4999999304        0.7071067362    0   0   0
Al            2.4999998840        2.4999998840        0.7071067362    0   0   0
Al            0.0000000000        0.0000000000        1.3174613175    0   0   1
Al            0.0000000000        0.9999999536        1.3171835811    0   0   1
Al            0.0000000000        1.9999999073        1.3171835811    0   0   1
Al            0.9999999536        0.0000000000        1.3171835811    0   0   1
Al            0.9999999536        0.9999999536        1.3172744723    0   0   1
Al            0.9999999536        1.9999999073        1.3172744723    0   0   1
Al            1.9999999073        0.0000000000        1.3171835811    0   0   1
Al            1.9999999073        0.9999999536        1.3172744723    0   0   1
Al            1.9999999073        1.9999999073        1.3172744723    0   0   1
Al            0.4999999768        0.4999999768        1.9037645973    0   0   1
Al            0.4999999768        1.4999999304        1.9045125757    0   0   1
Al            0.4999999768        2.4999998840        1.9037645973    0   0   1
Al            1.4999999304        0.4999999768        1.9045125757    0   0   1
Al            1.4999999304        1.4999999304        1.9028110288    0   0   1
Al            1.4999999304        2.4999998840        1.9045125757    0   0   1
Al            2.4999998840        0.4999999768        1.9037645973    0   0   1
Al            2.4999998840        1.4999999304        1.9045125757    0   0   1
Al            2.4999998840        2.4999998840        1.9037645973    0   0   1
End final coordinates



     Writing output data file ./tmp/Al.save/

     init_run     :      1.04s CPU      1.73s WALL (       1 calls)
     electrons    :    800.31s CPU    879.52s WALL (      20 calls)
     update_pot   :     15.76s CPU     16.94s WALL (      19 calls)
     forces       :     14.07s CPU     17.07s WALL (      20 calls)

     Called by init_run:
     wfcinit      :      0.15s CPU      0.17s WALL (       1 calls)
     potinit      :      0.63s CPU      1.10s WALL (       1 calls)
     hinit0       :      0.12s CPU      0.13s WALL (       1 calls)

     Called by electrons:
     c_bands      :    211.81s CPU    221.67s WALL (     557 calls)
     sum_band     :    109.41s CPU    132.88s WALL (     557 calls)
     v_of_rho     :     45.35s CPU     51.19s WALL (     576 calls)
     newd         :     80.68s CPU    109.94s WALL (     576 calls)
     PAW_pot      :    356.44s CPU    368.20s WALL (     595 calls)
     mix_rho      :     17.41s CPU     18.77s WALL (     557 calls)

     Called by c_bands:
     init_us_2    :      5.12s CPU      5.48s WALL (    1134 calls)
     regterg      :    192.35s CPU    201.30s WALL (     557 calls)

     Called by *egterg:
     rdiaghg      :      5.98s CPU      6.66s WALL (    2721 calls)
     h_psi        :    148.73s CPU    154.14s WALL (    2742 calls)
     s_psi        :     10.18s CPU     10.72s WALL (    2742 calls)
     g_psi        :      0.31s CPU      0.32s WALL (    2184 calls)

     Called by h_psi:
     h_psi:calbec :     14.85s CPU     15.58s WALL (    2742 calls)
     vloc_psi     :    123.26s CPU    127.54s WALL (    2742 calls)
     add_vuspsi   :     10.25s CPU     10.60s WALL (    2742 calls)

     General routines
     calbec       :     20.08s CPU     21.09s WALL (    3398 calls)
     fft          :     44.87s CPU     47.57s WALL (    6496 calls)
     ffts         :      8.45s CPU      8.72s WALL (    7983 calls)
     fftw         :    124.49s CPU    128.88s WALL (  118053 calls)
     interpolate  :      4.34s CPU      4.91s WALL (     576 calls)

     Parallel routines
     fft_scatt_xy :     11.69s CPU     12.15s WALL (  132532 calls)
     fft_scatt_yz :     72.45s CPU     74.35s WALL (  132532 calls)

     PWSCF        :  14m 5.93s CPU  15m31.60s WALL


   This run was terminated on:  10:14:43  20May2025            

=------------------------------------------------------------------------------=
   JOB DONE.
=------------------------------------------------------------------------------=
Note: The following floating-point exceptions are signalling: IEEE_UNDERFLOW_FLAG
