No protocol specified

     Program PWSCF v.7.3.1 starts on 19May2025 at 17: 8: 3 

     This program is part of the open-source Quantum ESPRESSO suite
     for quantum simulation of materials; please cite
         "P. Giannozzi et al., J. Phys.:Condens. Matter 21 395502 (2009);
         "P. Giannozzi et al., J. Phys.:Condens. Matter 29 465901 (2017);
         "P. Giannozzi et al., J. Chem. Phys. 152 154105 (2020);
          URL http://www.quantum-espresso.org", 
     in publications or presentations arising from this work. More details at
     http://www.quantum-espresso.org/quote

     Parallel version (MPI), running on    15 processors

     MPI processes distributed on     1 nodes
     21881 MiB available memory on the printing compute node when the environment starts

     Waiting for input...
     Reading input from standard input

     Current dimensions of program PWSCF are:
     Max number of different atomic species (ntypx) = 10
     Max number of k-points (npk) =  40000
     Max angular momentum in pseudopotentials (lmaxx) =  4
     file Al.pbe-n-kjpaw_psl.1.0.0.UPF: wavefunction(s)  3S 3P renormalized
     Found identity + (  0.0000  0.3333  0.0000) symmetry
     This is a supercell, fractional translations are disabled
     Message from routine setup:
     using ibrav=0 with symmetry is DISCOURAGED, use correct ibrav instead

     K-points division:     npool     =       5
     R & G space division:  proc/nbgrp/npool/nimage =       3
     Subspace diagonalization in iterative solution of the eigenvalue problem:
     a serial algorithm will be used


     Parallelization info
     --------------------
     sticks:   dense  smooth     PW     G-vecs:    dense   smooth      PW
     Min        2221    1113    295               364047   128783   17941
     Max        2222    1114    295               364052   128786   17941
     Sum        6665    3341    885              1092149   386353   53823

     Using Slab Decomposition



     bravais-lattice index     =            0
     lattice parameter (alat)  =       5.3944  a.u.
     unit-cell volume          =   11302.2493 (a.u.)^3
     number of atoms/cell      =           36
     number of atomic types    =            1
     number of electrons       =       108.00
     number of Kohn-Sham states=           65
     kinetic-energy cutoff     =      40.0000  Ry
     charge density cutoff     =     320.0000  Ry
     scf convergence threshold =      1.0E-07
     mixing beta               =       0.5000
     number of iterations used =            8  local-TF  mixing
     energy convergence thresh.=      1.0E-04
     force convergence thresh. =      1.0E-03
     Exchange-correlation= SLA  PW   PBX  PBC
                           (   1   4   3   4   0   0   0)
     nstep                     =           50


     celldm(1)=   5.394412  celldm(2)=   0.000000  celldm(3)=   0.000000
     celldm(4)=   0.000000  celldm(5)=   0.000000  celldm(6)=   0.000000

     crystal axes: (cart. coord. in units of alat)
               a(1) = (   3.000000   0.000000   0.000000 )  
               a(2) = (   0.000000   3.000000   0.000000 )  
               a(3) = (   0.000000   0.000000   8.000000 )  

     reciprocal axes: (cart. coord. in units 2 pi/alat)
               b(1) = (  0.333333  0.000000  0.000000 )  
               b(2) = (  0.000000  0.333333  0.000000 )  
               b(3) = (  0.000000  0.000000  0.125000 )  


     PseudoPot. # 1 for Al read from file:
     ../../Pseudo/Al.pbe-n-kjpaw_psl.1.0.0.UPF
     MD5 check sum: dd5adf945272da8132fc805c9e56c2d6
     Pseudo is Projector augmented-wave + core cor, Zval =  3.0
     Generated using "atomic" code by A. Dal Corso  v.5.1
     Shape of augmentation charge: PSQ
     Using radial grid of 1135 points,  6 beta functions with: 
                l(1) =   0
                l(2) =   0
                l(3) =   1
                l(4) =   1
                l(5) =   2
                l(6) =   2
     Q(r) pseudized with 0 coefficients 


     atomic species   valence    mass     pseudopotential
     Al                3.00     1.00000     Al( 1.00)

      8 Sym. Ops. (no inversion) found



   Cartesian axes

     site n.     atom                  positions (alat units)
         1        Al     tau(   1) = (   0.0000000   0.0000000   0.0000000  )
         2        Al     tau(   2) = (   0.0000000   1.0000000   0.0000000  )
         3        Al     tau(   3) = (   0.0000000   2.0000000   0.0000000  )
         4        Al     tau(   4) = (   1.0000000   0.0000000   0.0000000  )
         5        Al     tau(   5) = (   1.0000000   1.0000000   0.0000000  )
         6        Al     tau(   6) = (   1.0000000   2.0000000   0.0000000  )
         7        Al     tau(   7) = (   2.0000000   0.0000000   0.0000000  )
         8        Al     tau(   8) = (   2.0000000   1.0000000   0.0000000  )
         9        Al     tau(   9) = (   2.0000000   2.0000000   0.0000000  )
        10        Al     tau(  10) = (   0.5000000   0.5000000   0.7071068  )
        11        Al     tau(  11) = (   0.5000000   1.5000000   0.7071068  )
        12        Al     tau(  12) = (   0.5000000   2.5000000   0.7071068  )
        13        Al     tau(  13) = (   1.5000000   0.5000000   0.7071068  )
        14        Al     tau(  14) = (   1.5000000   1.5000000   0.7071068  )
        15        Al     tau(  15) = (   1.5000000   2.5000000   0.7071068  )
        16        Al     tau(  16) = (   2.5000000   0.5000000   0.7071068  )
        17        Al     tau(  17) = (   2.5000000   1.5000000   0.7071068  )
        18        Al     tau(  18) = (   2.5000000   2.5000000   0.7071068  )
        19        Al     tau(  19) = (   0.0000000   0.0000000   1.4307627  )
        20        Al     tau(  20) = (   0.0000000   1.0000000   1.4307591  )
        21        Al     tau(  21) = (   0.0000000   2.0000000   1.4307591  )
        22        Al     tau(  22) = (   1.0000000   0.0000000   1.4307591  )
        23        Al     tau(  23) = (   1.0000000   1.0000000   1.4307582  )
        24        Al     tau(  24) = (   1.0000000   2.0000000   1.4307582  )
        25        Al     tau(  25) = (   2.0000000   0.0000000   1.4307591  )
        26        Al     tau(  26) = (   2.0000000   1.0000000   1.4307582  )
        27        Al     tau(  27) = (   2.0000000   2.0000000   1.4307582  )
        28        Al     tau(  28) = (   0.5000000   0.5000000   2.1566262  )
        29        Al     tau(  29) = (   0.5000000   1.5000000   2.1566250  )
        30        Al     tau(  30) = (   0.5000000   2.5000000   2.1566262  )
        31        Al     tau(  31) = (   1.5000000   0.5000000   2.1566250  )
        32        Al     tau(  32) = (   1.5000000   1.5000000   2.1566273  )
        33        Al     tau(  33) = (   1.5000000   2.5000000   2.1566250  )
        34        Al     tau(  34) = (   2.5000000   0.5000000   2.1566262  )
        35        Al     tau(  35) = (   2.5000000   1.5000000   2.1566250  )
        36        Al     tau(  36) = (   2.5000000   2.5000000   2.1566262  )

     number of k points=    10  Marzari-Vanderbilt smearing, width (Ry)=  0.0500
                       cart. coord. in units 2pi/alat
        k(    1) = (   0.0208333   0.0208333   0.0000000), wk =   0.1250000
        k(    2) = (   0.0208333   0.0625000   0.0000000), wk =   0.2500000
        k(    3) = (   0.0208333   0.1041667   0.0000000), wk =   0.2500000
        k(    4) = (   0.0208333   0.1458333   0.0000000), wk =   0.2500000
        k(    5) = (   0.0625000   0.0625000   0.0000000), wk =   0.1250000
        k(    6) = (   0.0625000   0.1041667   0.0000000), wk =   0.2500000
        k(    7) = (   0.0625000   0.1458333   0.0000000), wk =   0.2500000
        k(    8) = (   0.1041667   0.1041667   0.0000000), wk =   0.1250000
        k(    9) = (   0.1041667   0.1458333   0.0000000), wk =   0.2500000
        k(   10) = (   0.1458333   0.1458333   0.0000000), wk =   0.1250000

     Dense  grid:  1092149 G-vectors     FFT dimensions: (  96,  96, 250)

     Smooth grid:   386353 G-vectors     FFT dimensions: (  72,  72, 180)

     Estimated max dynamical RAM per process >     738.52 MB

     Estimated total dynamical RAM >       9.78 GB

     Initial potential from superposition of free atoms

     starting charge     107.9176, renormalised to     108.0000

     negative rho (up, down):  9.667E-05 0.000E+00
     Starting wfcs are  144 randomized atomic wfcs
     Checking if some PAW data can be deallocated... 

     total cpu time spent up to now is       25.1 secs

     Self-consistent Calculation

     iteration #  1     ecut=    40.00 Ry     beta= 0.50
     Davidson diagonalization with overlap
     ethr =  1.00E-02,  avg # of iterations =  3.8

     total cpu time spent up to now is       55.5 secs

     total energy              =   -1421.44786224 Ry
     estimated scf accuracy    <       1.79389071 Ry

     iteration #  2     ecut=    40.00 Ry     beta= 0.50
     Davidson diagonalization with overlap
     ethr =  1.66E-03,  avg # of iterations =  3.0

     total cpu time spent up to now is       82.2 secs

     total energy              =   -1421.21496451 Ry
     estimated scf accuracy    <       1.21487014 Ry

     iteration #  3     ecut=    40.00 Ry     beta= 0.50
     Davidson diagonalization with overlap
     ethr =  1.12E-03,  avg # of iterations =  2.4

     total cpu time spent up to now is      105.6 secs

     total energy              =   -1421.41553150 Ry
     estimated scf accuracy    <       0.31889987 Ry

     iteration #  4     ecut=    40.00 Ry     beta= 0.50
     Davidson diagonalization with overlap
     ethr =  2.95E-04,  avg # of iterations =  4.3

     total cpu time spent up to now is      130.3 secs

     total energy              =   -1421.47403638 Ry
     estimated scf accuracy    <       0.06196985 Ry

     iteration #  5     ecut=    40.00 Ry     beta= 0.50
     Davidson diagonalization with overlap
     ethr =  5.74E-05,  avg # of iterations =  4.9

     total cpu time spent up to now is      155.2 secs

     total energy              =   -1421.45670300 Ry
     estimated scf accuracy    <       0.11360949 Ry

     iteration #  6     ecut=    40.00 Ry     beta= 0.50
     Davidson diagonalization with overlap
     ethr =  5.74E-05,  avg # of iterations =  2.3

     total cpu time spent up to now is      175.9 secs

     total energy              =   -1421.46221867 Ry
     estimated scf accuracy    <       0.05125675 Ry

     iteration #  7     ecut=    40.00 Ry     beta= 0.50
     Davidson diagonalization with overlap
     ethr =  4.75E-05,  avg # of iterations =  1.1

     negative rho (up, down):  1.949E-02 0.000E+00

     total cpu time spent up to now is      199.2 secs

     total energy              =   -1421.45870534 Ry
     estimated scf accuracy    <       0.05792120 Ry

     iteration #  8     ecut=    40.00 Ry     beta= 0.50
     Davidson diagonalization with overlap
     ethr =  4.75E-05,  avg # of iterations =  1.8

     negative rho (up, down):  4.492E-02 0.000E+00

     total cpu time spent up to now is      222.4 secs

     total energy              =   -1421.45472433 Ry
     estimated scf accuracy    <       0.02657519 Ry

     iteration #  9     ecut=    40.00 Ry     beta= 0.50
     Davidson diagonalization with overlap
     ethr =  2.46E-05,  avg # of iterations =  2.8

     negative rho (up, down):  1.428E-02 0.000E+00

     total cpu time spent up to now is      248.3 secs

     total energy              =   -1421.45623589 Ry
     estimated scf accuracy    <       0.00398210 Ry

     iteration # 10     ecut=    40.00 Ry     beta= 0.50
     Davidson diagonalization with overlap
     ethr =  3.69E-06,  avg # of iterations =  8.3

     negative rho (up, down):  5.910E-03 0.000E+00

     total cpu time spent up to now is      283.6 secs

     total energy              =   -1421.46061658 Ry
     estimated scf accuracy    <       0.07513613 Ry

     iteration # 11     ecut=    40.00 Ry     beta= 0.50
     Davidson diagonalization with overlap
     ethr =  3.69E-06,  avg # of iterations =  2.5

     negative rho (up, down):  1.291E-03 0.000E+00

     total cpu time spent up to now is      307.7 secs

     total energy              =   -1421.45667595 Ry
     estimated scf accuracy    <       0.04077507 Ry

     iteration # 12     ecut=    40.00 Ry     beta= 0.50
     Davidson diagonalization with overlap
     ethr =  3.69E-06,  avg # of iterations =  4.4

     negative rho (up, down):  1.391E-03 0.000E+00

     total cpu time spent up to now is      337.9 secs

     total energy              =   -1421.45789804 Ry
     estimated scf accuracy    <       0.00721298 Ry

     iteration # 13     ecut=    40.00 Ry     beta= 0.50
     Davidson diagonalization with overlap
     ethr =  3.69E-06,  avg # of iterations =  1.2

     negative rho (up, down):  1.006E-03 0.000E+00

     total cpu time spent up to now is      367.0 secs

     total energy              =   -1421.45674973 Ry
     estimated scf accuracy    <       0.00483109 Ry

     iteration # 14     ecut=    40.00 Ry     beta= 0.50
     Davidson diagonalization with overlap
     ethr =  3.69E-06,  avg # of iterations =  2.0

     negative rho (up, down):  1.033E-04 0.000E+00

     total cpu time spent up to now is      393.3 secs

     total energy              =   -1421.45747410 Ry
     estimated scf accuracy    <       0.00004669 Ry

     iteration # 15     ecut=    40.00 Ry     beta= 0.50
     Davidson diagonalization with overlap
     ethr =  4.32E-08,  avg # of iterations = 11.2

     negative rho (up, down):  1.633E-04 0.000E+00

     total cpu time spent up to now is      438.5 secs

     total energy              =   -1421.45756035 Ry
     estimated scf accuracy    <       0.00014717 Ry

     iteration # 16     ecut=    40.00 Ry     beta= 0.50
     Davidson diagonalization with overlap
     ethr =  4.32E-08,  avg # of iterations =  1.2

     negative rho (up, down):  5.153E-05 0.000E+00

     total cpu time spent up to now is      466.3 secs

     total energy              =   -1421.45752557 Ry
     estimated scf accuracy    <       0.00015011 Ry

     iteration # 17     ecut=    40.00 Ry     beta= 0.50
     Davidson diagonalization with overlap
     ethr =  4.32E-08,  avg # of iterations =  2.0

     negative rho (up, down):  5.084E-05 0.000E+00

     total cpu time spent up to now is      493.4 secs

     total energy              =   -1421.45753600 Ry
     estimated scf accuracy    <       0.00000554 Ry

     iteration # 18     ecut=    40.00 Ry     beta= 0.50
     Davidson diagonalization with overlap
     ethr =  5.13E-09,  avg # of iterations =  6.9

     negative rho (up, down):  5.891E-05 0.000E+00

     total cpu time spent up to now is      533.8 secs

     total energy              =   -1421.45753805 Ry
     estimated scf accuracy    <       0.00002674 Ry

     iteration # 19     ecut=    40.00 Ry     beta= 0.50
     Davidson diagonalization with overlap
     ethr =  5.13E-09,  avg # of iterations =  2.4

     negative rho (up, down):  9.062E-05 0.000E+00

     total cpu time spent up to now is      562.9 secs

     total energy              =   -1421.45753930 Ry
     estimated scf accuracy    <       0.00000268 Ry

     iteration # 20     ecut=    40.00 Ry     beta= 0.50
     Davidson diagonalization with overlap
     ethr =  2.48E-09,  avg # of iterations =  4.7

     negative rho (up, down):  3.599E-05 0.000E+00

     total cpu time spent up to now is      591.7 secs

     End of self-consistent calculation

          k = 0.0208 0.0208 0.0000 ( 48321 PWs)   bands (ev):

   -10.4744  -9.1498  -8.7231  -8.7231  -8.2266  -8.2266  -7.4121  -7.4121
    -7.0250  -6.9941  -6.9196  -6.9196  -6.5047  -6.5047  -6.0177  -5.6964
    -5.3061  -5.3061  -5.2110  -5.2110  -4.8192  -4.8192  -4.7281  -4.2520
    -3.6091  -3.1295  -3.1295  -3.1166  -3.1166  -2.6527  -2.5583  -2.5583
    -2.1545  -2.1545  -2.0730  -2.0730  -1.9305  -1.8501  -1.8501  -1.6558
    -1.6558  -1.5873  -1.1244  -0.9250  -0.9250  -0.8887  -0.4272  -0.4272
    -0.4207  -0.4207  -0.3687  -0.2705  -0.2704  -0.2368   0.0942   0.1288
     0.1617   0.1617   0.2281   0.2281   0.3314   0.3924   0.3924   1.1093
     1.2266

          k = 0.0208 0.0625 0.0000 ( 48300 PWs)   bands (ev):

   -10.4114  -9.1589  -9.0873  -8.6609  -8.1647  -7.8445  -7.6702  -7.4241
    -7.3504  -6.9632  -6.9327  -6.8582  -6.3679  -6.1229  -5.9568  -5.7337
    -5.6356  -5.4730  -5.2450  -4.7583  -4.6680  -4.2740  -4.1905  -4.1885
    -4.0308  -4.0127  -3.5491  -3.0584  -2.9727  -2.7387  -2.5933  -2.4981
    -2.4250  -2.1203  -2.0974  -2.0637  -2.0126  -1.9549  -1.8720  -1.7924
    -1.5711  -1.3065  -1.1748  -1.1608  -1.1160  -0.8685  -0.8290  -0.8221
    -0.7227  -0.7064  -0.6160  -0.2125  -0.0782   0.0723   0.0981   0.1183
     0.2200   0.2845   0.5872   0.6302   0.7954   0.8965   0.9081   0.9114
     1.2041

          k = 0.0208 0.1042 0.0000 ( 48272 PWs)   bands (ev):

   -10.2857  -9.5335  -8.9626  -8.5367  -8.2162  -8.0409  -7.7939  -7.3010
    -7.2271  -7.0546  -6.8397  -6.7353  -6.4899  -6.1013  -6.0009  -5.7592
    -5.3517  -5.1230  -4.8723  -4.8544  -4.6368  -4.3936  -4.0704  -4.0678
    -3.9103  -3.6772  -3.5956  -3.5694  -3.3354  -3.2129  -2.9425  -2.7776
    -2.3779  -2.2668  -2.0044  -1.9840  -1.9507  -1.8921  -1.7550  -1.6775
    -1.6610  -1.5827  -1.5473  -1.5139  -1.3501  -1.1748  -1.0580  -1.0107
    -0.8406  -0.7565  -0.1306  -0.1164  -0.0969   0.0335   0.3365   0.3819
     0.3968   0.4819   0.5856   0.7442   0.8828   1.0288   1.0438   1.1459
     1.2159

          k = 0.0208 0.1458 0.0000 ( 48316 PWs)   bands (ev):

   -10.0973  -9.8464  -8.7756  -8.5267  -8.3506  -8.1028  -7.8555  -7.6087
    -7.0424  -6.7965  -6.6547  -6.5513  -6.4085  -6.3810  -6.3063  -5.6531
    -5.0799  -4.9402  -4.6969  -4.6918  -4.4546  -4.3581  -4.2189  -4.2123
    -3.9831  -3.8840  -3.6397  -3.5214  -3.4049  -3.0121  -2.9385  -2.7699
    -2.7033  -2.5430  -2.3034  -2.2495  -2.1980  -1.9587  -1.8165  -1.7117
    -1.6004  -1.5797  -1.5067  -1.4722  -1.3585  -1.3469  -1.2825  -0.8982
    -0.6696  -0.5910  -0.3775  -0.2548  -0.2227   0.0758   0.3044   0.3972
     0.5109   0.5634   0.7424   0.7813   0.9587   1.0019   1.3319   1.4683
     1.8063

          k = 0.0625 0.0625 0.0000 ( 48243 PWs)   bands (ev):

   -10.3485  -9.0965  -9.0965  -9.0249  -7.8556  -7.7826  -7.7826  -7.6086
    -7.6086  -6.9015  -6.5511  -6.3824  -6.3824  -6.3067  -6.3067  -5.6724
    -5.6724  -5.0900  -5.0900  -4.9326  -4.4541  -4.2134  -4.2134  -4.1291
    -3.9535  -3.9535  -3.6536  -3.0101  -3.0101  -2.9120  -2.9120  -2.7988
    -2.7988  -2.6800  -2.6800  -1.9343  -1.8134  -1.7095  -1.5929  -1.5399
    -1.5399  -1.5110  -1.5110  -1.1063  -1.1063  -0.7157  -0.6639  -0.6639
    -0.5586  -0.5586  -0.5459  -0.5451  -0.3240  -0.3240   0.1713   0.1713
     0.5022   0.5471   0.5471   0.6732   0.6886   0.6886   0.7630   0.9136
     1.0842

          k = 0.0625 0.1042 0.0000 ( 48290 PWs)   bands (ev):

   -10.2228  -9.4710  -8.9719  -8.9002  -8.2267  -8.1541  -7.6589  -7.4853
    -6.9933  -6.9193  -6.7780  -6.7488  -6.1844  -6.0399  -5.7742  -5.6983
    -5.5500  -5.4535  -4.8183  -4.7944  -4.4892  -4.3386  -4.0923  -4.0065
    -3.8352  -3.6162  -3.6124  -3.5106  -3.3693  -3.2745  -3.1367  -3.0676
    -2.7907  -2.5630  -2.4154  -2.3549  -2.3464  -2.0676  -1.8724  -1.6964
    -1.5235  -1.3910  -1.1229  -1.0127  -0.9994  -0.9991  -0.7819  -0.6763
    -0.5465  -0.4854  -0.4441  -0.3623  -0.3588  -0.0660   0.1553   0.2275
     0.2754   0.3693   0.7550   0.8054   0.8729   0.9167   0.9410   1.1946
     1.5413

          k = 0.0625 0.1458 0.0000 ( 48296 PWs)   bands (ev):

   -10.0345  -9.7838  -8.7852  -8.7133  -8.5367  -8.4645  -7.4736  -7.3007
    -7.2270  -7.0551  -6.5931  -6.3470  -6.3200  -6.0012  -5.7574  -5.5926
    -5.3667  -5.1226  -5.1099  -5.0193  -4.3947  -4.2979  -3.9110  -3.8228
    -3.8185  -3.6967  -3.6698  -3.6587  -3.5786  -3.4250  -3.1097  -3.0229
    -2.9523  -2.6092  -2.4259  -2.3882  -2.3679  -2.2440  -2.1571  -1.7669
    -1.7635  -1.5212  -1.2883  -1.2114  -1.0705  -0.9728  -0.8443  -0.6561
    -0.3932  -0.3706  -0.2735  -0.1961  -0.1365  -0.0485   0.1635   0.2609
     0.4247   0.4554   0.6030   0.8174   0.9546   0.9802   1.0022   1.2125
     1.4851

          k = 0.1042 0.1042 0.0000 ( 48279 PWs)   bands (ev):

   -10.0972  -9.3460  -9.3460  -8.7756  -8.5987  -8.0301  -8.0301  -7.2885
    -6.8707  -6.8707  -6.6547  -6.1382  -6.1382  -5.9172  -5.9172  -5.5766
    -5.5766  -5.1835  -4.8501  -4.8501  -4.6745  -4.6745  -3.9623  -3.9623
    -3.8839  -3.7560  -3.4944  -3.4944  -3.3932  -3.3932  -3.1528  -3.1528
    -2.7717  -2.7717  -2.6923  -2.6923  -2.4930  -2.4269  -2.1655  -1.5794
    -1.4052  -1.4052  -0.9469  -0.8823  -0.8823  -0.7869  -0.7033  -0.7033
    -0.6647  -0.6647  -0.4523  -0.1836   0.0301   0.0301   0.0306   0.0306
     0.1507   0.4697   0.8542   1.0468   1.0573   1.0573   1.2870   1.2870
     1.3684

          k = 0.1042 0.1458 0.0000 ( 48240 PWs)   bands (ev):

    -9.9091  -9.6585  -9.1588  -8.9096  -8.5888  -8.3403  -7.8443  -7.5970
    -6.6871  -6.4699  -6.4427  -6.2240  -6.1982  -5.7334  -5.4887  -5.4718
    -5.4708  -5.3944  -5.1521  -4.8982  -4.7513  -4.4953  -4.2574  -4.1778
    -4.1762  -3.7004  -3.4627  -3.4565  -3.3125  -3.2173  -3.1384  -3.0712
    -2.9834  -2.9706  -2.8328  -2.7284  -2.5349  -2.1254  -2.1200  -1.8840
    -1.4190  -1.4041  -1.2970  -1.2285  -1.1712  -0.9940  -0.7068  -0.5455
    -0.4895  -0.4735  -0.2574  -0.0791   0.0256   0.1464   0.1596   0.2703
     0.5715   0.6150   0.7086   0.7966   1.0779   1.2315   1.2597   1.3515
     1.4098

          k = 0.1458 0.1458 0.0000 ( 48241 PWs)   bands (ev):

    -9.7211  -9.4709  -9.4709  -9.2212  -8.4023  -8.1541  -8.1541  -7.9062
    -6.2854  -6.0398  -6.0398  -6.0157  -6.0157  -5.7945  -5.7731  -5.7731
    -5.2909  -5.2909  -5.0504  -5.0504  -4.7170  -4.7170  -4.4760  -4.4760
    -3.9980  -3.9980  -3.7593  -3.7593  -3.5173  -3.2737  -3.2737  -3.0308
    -2.6539  -2.6539  -2.5923  -2.4161  -2.4161  -2.2810  -1.9478  -1.9478
    -1.7121  -1.7121  -1.3638  -1.2289  -1.0625  -0.9959  -0.9959  -0.9154
    -0.7629  -0.6255   0.0958   0.0958   0.3277   0.3277   0.4364   0.6596
     0.7201   0.7450   0.7450   0.9314   0.9632   0.9750   0.9750   1.1369
     1.1369

     the Fermi energy is     0.0765 ev

!    total energy              =   -1421.45753970 Ry
     total all-electron energy =    -17482.597677 Ry
     estimated scf accuracy    <       0.00000005 Ry
     smearing contrib. (-TS)   =      -0.00136659 Ry
     internal energy E=F+TS    =   -1421.45617311 Ry

     The total energy is F=E-TS. E is the sum of the following terms:
     one-electron contribution =   -1539.68722491 Ry
     hartree contribution      =     796.01438617 Ry
     xc contribution           =     -91.10015901 Ry
     ewald contribution        =     661.72892460 Ry
     one-center paw contrib.   =   -1248.41209997 Ry

     convergence has been achieved in  20 iterations

     negative rho (up, down):  3.599E-05 0.000E+00

     Forces acting on atoms (cartesian axes, Ry/au):

     atom    1 type  1   force =     0.00000000    0.00000000   -0.00498716
     atom    2 type  1   force =     0.00000000   -0.00000020   -0.00498747
     atom    3 type  1   force =     0.00000000    0.00000020   -0.00498747
     atom    4 type  1   force =    -0.00000020    0.00000000   -0.00498747
     atom    5 type  1   force =    -0.00000050   -0.00000050   -0.00498745
     atom    6 type  1   force =    -0.00000050    0.00000050   -0.00498745
     atom    7 type  1   force =     0.00000020    0.00000000   -0.00498747
     atom    8 type  1   force =     0.00000050   -0.00000050   -0.00498745
     atom    9 type  1   force =     0.00000050    0.00000050   -0.00498745
     atom   10 type  1   force =    -0.00000029   -0.00000029    0.00512882
     atom   11 type  1   force =    -0.00000007    0.00000000    0.00512849
     atom   12 type  1   force =    -0.00000029    0.00000029    0.00512882
     atom   13 type  1   force =     0.00000000   -0.00000007    0.00512849
     atom   14 type  1   force =     0.00000000    0.00000000    0.00512895
     atom   15 type  1   force =     0.00000000    0.00000007    0.00512849
     atom   16 type  1   force =     0.00000029   -0.00000029    0.00512882
     atom   17 type  1   force =     0.00000007    0.00000000    0.00512849
     atom   18 type  1   force =     0.00000029    0.00000029    0.00512882
     atom   19 type  1   force =     0.00000000    0.00000000    0.00003705
     atom   20 type  1   force =     0.00000000   -0.00000042    0.00003759
     atom   21 type  1   force =     0.00000000    0.00000042    0.00003759
     atom   22 type  1   force =    -0.00000042    0.00000000    0.00003759
     atom   23 type  1   force =     0.00000034    0.00000034    0.00003851
     atom   24 type  1   force =     0.00000034   -0.00000034    0.00003851
     atom   25 type  1   force =     0.00000042    0.00000000    0.00003759
     atom   26 type  1   force =    -0.00000034    0.00000034    0.00003851
     atom   27 type  1   force =    -0.00000034   -0.00000034    0.00003851
     atom   28 type  1   force =     0.00000034    0.00000034   -0.00017940
     atom   29 type  1   force =     0.00000102    0.00000000   -0.00017887
     atom   30 type  1   force =     0.00000034   -0.00000034   -0.00017940
     atom   31 type  1   force =     0.00000000    0.00000102   -0.00017887
     atom   32 type  1   force =     0.00000000    0.00000000   -0.00017974
     atom   33 type  1   force =     0.00000000   -0.00000102   -0.00017887
     atom   34 type  1   force =    -0.00000034    0.00000034   -0.00017940
     atom   35 type  1   force =    -0.00000102    0.00000000   -0.00017887
     atom   36 type  1   force =    -0.00000034   -0.00000034   -0.00017940

     Total force =     0.000550     Total SCF correction =     0.000225
     SCF correction compared to forces is large: reduce conv_thr to get better values

     BFGS Geometry Optimization
     Energy error            =      0.0E+00 Ry
     Gradient error          =      1.8E-04 Ry/Bohr

     bfgs converged in   1 scf cycles and   0 bfgs steps
     (criteria: energy <  1.0E-04 Ry, force <  1.0E-03 Ry/Bohr)

     End of BFGS Geometry Optimization

     Final energy             =   -1421.4575397023 Ry
Begin final coordinates

ATOMIC_POSITIONS (alat)
Al               0.0000000000        0.0000000000        0.0000000000    0   0   0
Al               0.0000000000        0.9999999976        0.0000000000    0   0   0
Al               0.0000000000        1.9999999953        0.0000000000    0   0   0
Al               0.9999999976        0.0000000000        0.0000000000    0   0   0
Al               0.9999999976        0.9999999976        0.0000000000    0   0   0
Al               0.9999999976        1.9999999953        0.0000000000    0   0   0
Al               1.9999999953        0.0000000000        0.0000000000    0   0   0
Al               1.9999999953        0.9999999976        0.0000000000    0   0   0
Al               1.9999999953        1.9999999953        0.0000000000    0   0   0
Al               0.4999999988        0.4999999988        0.7071067673    0   0   0
Al               0.4999999988        1.4999999965        0.7071067673    0   0   0
Al               0.4999999988        2.4999999941        0.7071067673    0   0   0
Al               1.4999999965        0.4999999988        0.7071067673    0   0   0
Al               1.4999999965        1.4999999965        0.7071067673    0   0   0
Al               1.4999999965        2.4999999941        0.7071067673    0   0   0
Al               2.4999999941        0.4999999988        0.7071067673    0   0   0
Al               2.4999999941        1.4999999965        0.7071067673    0   0   0
Al               2.4999999941        2.4999999941        0.7071067673    0   0   0
Al               0.0000000000        0.0000000000        1.4307627046    0   0   1
Al               0.0000000000        0.9999999976        1.4307591089    0   0   1
Al               0.0000000000        1.9999999953        1.4307591089    0   0   1
Al               0.9999999976        0.0000000000        1.4307591089    0   0   1
Al               0.9999999976        0.9999999976        1.4307581502    0   0   1
Al               0.9999999976        1.9999999953        1.4307581502    0   0   1
Al               1.9999999953        0.0000000000        1.4307591089    0   0   1
Al               1.9999999953        0.9999999976        1.4307581502    0   0   1
Al               1.9999999953        1.9999999953        1.4307581502    0   0   1
Al               0.4999999988        0.4999999988        2.1566262357    0   0   1
Al               0.4999999988        1.4999999965        2.1566250477    0   0   1
Al               0.4999999988        2.4999999941        2.1566262357    0   0   1
Al               1.4999999965        0.4999999988        2.1566250477    0   0   1
Al               1.4999999965        1.4999999965        2.1566273052    0   0   1
Al               1.4999999965        2.4999999941        2.1566250477    0   0   1
Al               2.4999999941        0.4999999988        2.1566262357    0   0   1
Al               2.4999999941        1.4999999965        2.1566250477    0   0   1
Al               2.4999999941        2.4999999941        2.1566262357    0   0   1
End final coordinates



     Writing all to output data dir ./tmp/Al.save/ :
     XML data file, charge density, pseudopotentials, collected wavefunctions

     init_run     :     11.99s CPU     16.03s WALL (       1 calls)
     electrons    :    439.49s CPU    566.93s WALL (       1 calls)
     forces       :      7.53s CPU      9.22s WALL (       1 calls)

     Called by init_run:
     wfcinit      :      8.92s CPU     10.99s WALL (       1 calls)
     potinit      :      1.18s CPU      2.56s WALL (       1 calls)
     hinit0       :      0.54s CPU      0.75s WALL (       1 calls)

     Called by electrons:
     c_bands      :    269.62s CPU    336.58s WALL (      20 calls)
     sum_band     :     72.55s CPU     98.06s WALL (      20 calls)
     v_of_rho     :     20.04s CPU     26.89s WALL (      21 calls)
     newd         :     14.51s CPU     20.99s WALL (      21 calls)
     PAW_pot      :     17.62s CPU     22.07s WALL (      21 calls)
     mix_rho      :     37.37s CPU     52.95s WALL (      20 calls)

     Called by c_bands:
     init_us_2    :      9.21s CPU     12.19s WALL (      84 calls)
     cegterg      :    213.67s CPU    266.94s WALL (      40 calls)

     Called by *egterg:
     cdiaghg      :      1.46s CPU      2.10s WALL (     178 calls)
     h_psi        :    166.70s CPU    209.09s WALL (     180 calls)
     s_psi        :     22.84s CPU     27.83s WALL (     180 calls)
     g_psi        :      0.34s CPU      0.39s WALL (     138 calls)

     Called by h_psi:
     h_psi:calbec :     24.77s CPU     31.30s WALL (     180 calls)
     vloc_psi     :    118.68s CPU    148.18s WALL (     180 calls)
     add_vuspsi   :     22.72s CPU     28.47s WALL (     180 calls)

     General routines
     calbec       :     34.25s CPU     43.12s WALL (     228 calls)
     fft          :     10.43s CPU     14.34s WALL (     282 calls)
     ffts         :     17.67s CPU     24.71s WALL (    1950 calls)
     fftw         :    110.77s CPU    138.62s WALL (   17540 calls)
     interpolate  :      1.25s CPU      1.72s WALL (      21 calls)

     Parallel routines

     PWSCF        :   7m47.32s CPU  10m 3.60s WALL


   This run was terminated on:  17:18: 7  19May2025            

=------------------------------------------------------------------------------=
   JOB DONE.
=------------------------------------------------------------------------------=
