No protocol specified

     Program PWSCF v.7.3.1 starts on 19May2025 at 23:12:29 

     This program is part of the open-source Quantum ESPRESSO suite
     for quantum simulation of materials; please cite
         "P. Giannozzi et al., J. Phys.:Condens. Matter 21 395502 (2009);
         "P. Giannozzi et al., J. Phys.:Condens. Matter 29 465901 (2017);
         "P. Giannozzi et al., J. Chem. Phys. 152 154105 (2020);
          URL http://www.quantum-espresso.org", 
     in publications or presentations arising from this work. More details at
     http://www.quantum-espresso.org/quote

     Parallel version (MPI), running on     6 processors

     MPI processes distributed on     1 nodes
     22133 MiB available memory on the printing compute node when the environment starts

     Waiting for input...
     Reading input from standard input

     Current dimensions of program PWSCF are:
     Max number of different atomic species (ntypx) = 10
     Max number of k-points (npk) =  40000
     Max angular momentum in pseudopotentials (lmaxx) =  4
     file Al.pbe-n-kjpaw_psl.1.0.0.UPF: wavefunction(s)  3S 3P renormalized

     gamma-point specific algorithms are used
     Found identity + (  0.0000  0.3333  0.0000) symmetry
     This is a supercell, fractional translations are disabled
     Message from routine setup:
     using ibrav=0 with symmetry is DISCOURAGED, use correct ibrav instead

     R & G space division:  proc/nbgrp/npool/nimage =       6
     Subspace diagonalization in iterative solution of the eigenvalue problem:
     a serial algorithm will be used


     Parallelization info
     --------------------
     sticks:   dense  smooth     PW     G-vecs:    dense   smooth      PW
     Min        1109     555    140               182018    64390    8052
     Max        1112     558    142               182028    64394    8064
     Sum        6665    3341    845              1092149   386353   48331

     Using Slab Decomposition



     bravais-lattice index     =            0
     lattice parameter (alat)  =       5.3944  a.u.
     unit-cell volume          =   11302.2493 (a.u.)^3
     number of atoms/cell      =           36
     number of atomic types    =            1
     number of electrons       =       108.00
     number of Kohn-Sham states=           65
     kinetic-energy cutoff     =      40.0000  Ry
     charge density cutoff     =     320.0000  Ry
     scf convergence threshold =      1.0E-07
     mixing beta               =       0.5000
     number of iterations used =            8  local-TF  mixing
     energy convergence thresh.=      1.0E-04
     force convergence thresh. =      1.0E-03
     Exchange-correlation= SLA  PW   PBX  PBC
                           (   1   4   3   4   0   0   0)
     nstep                     =           50


     celldm(1)=   5.394412  celldm(2)=   0.000000  celldm(3)=   0.000000
     celldm(4)=   0.000000  celldm(5)=   0.000000  celldm(6)=   0.000000

     crystal axes: (cart. coord. in units of alat)
               a(1) = (   3.000000   0.000000   0.000000 )  
               a(2) = (   0.000000   3.000000   0.000000 )  
               a(3) = (   0.000000   0.000000   8.000000 )  

     reciprocal axes: (cart. coord. in units 2 pi/alat)
               b(1) = (  0.333333  0.000000  0.000000 )  
               b(2) = (  0.000000  0.333333  0.000000 )  
               b(3) = (  0.000000  0.000000  0.125000 )  


     PseudoPot. # 1 for Al read from file:
     ../../Pseudo/Al.pbe-n-kjpaw_psl.1.0.0.UPF
     MD5 check sum: dd5adf945272da8132fc805c9e56c2d6
     Pseudo is Projector augmented-wave + core cor, Zval =  3.0
     Generated using "atomic" code by A. Dal Corso  v.5.1
     Shape of augmentation charge: PSQ
     Using radial grid of 1135 points,  6 beta functions with: 
                l(1) =   0
                l(2) =   0
                l(3) =   1
                l(4) =   1
                l(5) =   2
                l(6) =   2
     Q(r) pseudized with 0 coefficients 


     atomic species   valence    mass     pseudopotential
     Al                3.00     1.00000     Al( 1.00)

      8 Sym. Ops. (no inversion) found



   Cartesian axes

     site n.     atom                  positions (alat units)
         1        Al     tau(   1) = (   0.0000000   0.0000000   0.0000000  )
         2        Al     tau(   2) = (   0.0000000   1.0000000   0.0000000  )
         3        Al     tau(   3) = (   0.0000000   2.0000000   0.0000000  )
         4        Al     tau(   4) = (   1.0000000   0.0000000   0.0000000  )
         5        Al     tau(   5) = (   1.0000000   1.0000000   0.0000000  )
         6        Al     tau(   6) = (   1.0000000   2.0000000   0.0000000  )
         7        Al     tau(   7) = (   2.0000000   0.0000000   0.0000000  )
         8        Al     tau(   8) = (   2.0000000   1.0000000   0.0000000  )
         9        Al     tau(   9) = (   2.0000000   2.0000000   0.0000000  )
        10        Al     tau(  10) = (   0.5000000   0.5000000   0.7071068  )
        11        Al     tau(  11) = (   0.5000000   1.5000000   0.7071068  )
        12        Al     tau(  12) = (   0.5000000   2.5000000   0.7071068  )
        13        Al     tau(  13) = (   1.5000000   0.5000000   0.7071068  )
        14        Al     tau(  14) = (   1.5000000   1.5000000   0.7071068  )
        15        Al     tau(  15) = (   1.5000000   2.5000000   0.7071068  )
        16        Al     tau(  16) = (   2.5000000   0.5000000   0.7071068  )
        17        Al     tau(  17) = (   2.5000000   1.5000000   0.7071068  )
        18        Al     tau(  18) = (   2.5000000   2.5000000   0.7071068  )
        19        Al     tau(  19) = (   0.0000000   0.0000000   1.4307627  )
        20        Al     tau(  20) = (   0.0000000   1.0000000   1.4307591  )
        21        Al     tau(  21) = (   0.0000000   2.0000000   1.4307591  )
        22        Al     tau(  22) = (   1.0000000   0.0000000   1.4307591  )
        23        Al     tau(  23) = (   1.0000000   1.0000000   1.4307582  )
        24        Al     tau(  24) = (   1.0000000   2.0000000   1.4307582  )
        25        Al     tau(  25) = (   2.0000000   0.0000000   1.4307591  )
        26        Al     tau(  26) = (   2.0000000   1.0000000   1.4307582  )
        27        Al     tau(  27) = (   2.0000000   2.0000000   1.4307582  )
        28        Al     tau(  28) = (   0.5000000   0.5000000   2.1566262  )
        29        Al     tau(  29) = (   0.5000000   1.5000000   2.1566250  )
        30        Al     tau(  30) = (   0.5000000   2.5000000   2.1566262  )
        31        Al     tau(  31) = (   1.5000000   0.5000000   2.1566250  )
        32        Al     tau(  32) = (   1.5000000   1.5000000   2.1566273  )
        33        Al     tau(  33) = (   1.5000000   2.5000000   2.1566250  )
        34        Al     tau(  34) = (   2.5000000   0.5000000   2.1566262  )
        35        Al     tau(  35) = (   2.5000000   1.5000000   2.1566250  )
        36        Al     tau(  36) = (   2.5000000   2.5000000   2.1566262  )

     number of k points=     1  Marzari-Vanderbilt smearing, width (Ry)=  0.0500
                       cart. coord. in units 2pi/alat
        k(    1) = (   0.0000000   0.0000000   0.0000000), wk =   2.0000000

     Dense  grid:   546075 G-vectors     FFT dimensions: (  96,  96, 250)

     Smooth grid:   193177 G-vectors     FFT dimensions: (  72,  72, 180)

     Estimated max dynamical RAM per process >     515.53 MB

     Estimated total dynamical RAM >       3.02 GB

     Initial potential from superposition of free atoms

     starting charge     107.9176, renormalised to     108.0000

     negative rho (up, down):  9.667E-05 0.000E+00
     Starting wfcs are  144 randomized atomic wfcs
     Checking if some PAW data can be deallocated... 

     total cpu time spent up to now is        2.6 secs

     Self-consistent Calculation

     iteration #  1     ecut=    40.00 Ry     beta= 0.50
     Davidson diagonalization with overlap
     ethr =  1.00E-02,  avg # of iterations =  4.0

     total cpu time spent up to now is        6.4 secs

     total energy              =   -1420.76315410 Ry
     estimated scf accuracy    <       4.24788042 Ry

     iteration #  2     ecut=    40.00 Ry     beta= 0.50
     Davidson diagonalization with overlap
     ethr =  3.93E-03,  avg # of iterations =  1.0

     total cpu time spent up to now is        9.5 secs

     total energy              =   -1420.51314753 Ry
     estimated scf accuracy    <       1.94412848 Ry

     iteration #  3     ecut=    40.00 Ry     beta= 0.50
     Davidson diagonalization with overlap
     ethr =  1.80E-03,  avg # of iterations =  2.0

     total cpu time spent up to now is       12.6 secs

     total energy              =   -1420.77328830 Ry
     estimated scf accuracy    <       0.13437362 Ry

     iteration #  4     ecut=    40.00 Ry     beta= 0.50
     Davidson diagonalization with overlap
     ethr =  1.24E-04,  avg # of iterations =  4.0

     total cpu time spent up to now is       15.9 secs

     total energy              =   -1420.81532280 Ry
     estimated scf accuracy    <       0.05649552 Ry

     iteration #  5     ecut=    40.00 Ry     beta= 0.50
     Davidson diagonalization with overlap
     ethr =  5.23E-05,  avg # of iterations =  2.0

     total cpu time spent up to now is       18.9 secs

     total energy              =   -1420.81003082 Ry
     estimated scf accuracy    <       0.11104727 Ry

     iteration #  6     ecut=    40.00 Ry     beta= 0.50
     Davidson diagonalization with overlap
     ethr =  5.23E-05,  avg # of iterations =  1.0

     total cpu time spent up to now is       21.9 secs

     total energy              =   -1420.80281015 Ry
     estimated scf accuracy    <       0.04915433 Ry

     iteration #  7     ecut=    40.00 Ry     beta= 0.50
     Davidson diagonalization with overlap
     ethr =  4.55E-05,  avg # of iterations =  2.0

     total cpu time spent up to now is       25.3 secs

     total energy              =   -1420.80302091 Ry
     estimated scf accuracy    <       0.01176306 Ry

     iteration #  8     ecut=    40.00 Ry     beta= 0.50
     Davidson diagonalization with overlap
     ethr =  1.09E-05,  avg # of iterations =  2.0

     negative rho (up, down):  1.283E-02 0.000E+00

     total cpu time spent up to now is       28.8 secs

     total energy              =   -1420.80359759 Ry
     estimated scf accuracy    <       0.00786635 Ry

     iteration #  9     ecut=    40.00 Ry     beta= 0.50
     Davidson diagonalization with overlap
     ethr =  7.28E-06,  avg # of iterations =  2.0

     negative rho (up, down):  4.203E-02 0.000E+00

     total cpu time spent up to now is       32.2 secs

     total energy              =   -1420.80438418 Ry
     estimated scf accuracy    <       0.00182195 Ry

     iteration # 10     ecut=    40.00 Ry     beta= 0.50
     Davidson diagonalization with overlap
     ethr =  1.69E-06,  avg # of iterations =  5.0

     negative rho (up, down):  7.770E-03 0.000E+00

     total cpu time spent up to now is       36.0 secs

     total energy              =   -1420.80421425 Ry
     estimated scf accuracy    <       0.00172775 Ry

     iteration # 11     ecut=    40.00 Ry     beta= 0.50
     Davidson diagonalization with overlap
     ethr =  1.60E-06,  avg # of iterations =  2.0

     negative rho (up, down):  1.957E-03 0.000E+00

     total cpu time spent up to now is       39.5 secs

     total energy              =   -1420.80443966 Ry
     estimated scf accuracy    <       0.00008571 Ry

     iteration # 12     ecut=    40.00 Ry     beta= 0.50
     Davidson diagonalization with overlap
     ethr =  7.94E-08,  avg # of iterations = 12.0

     negative rho (up, down):  2.817E-03 0.000E+00

     total cpu time spent up to now is       43.6 secs

     total energy              =   -1420.80447298 Ry
     estimated scf accuracy    <       0.00015212 Ry

     iteration # 13     ecut=    40.00 Ry     beta= 0.50
     Davidson diagonalization with overlap
     ethr =  7.94E-08,  avg # of iterations =  2.0

     negative rho (up, down):  4.309E-05 0.000E+00

     total cpu time spent up to now is       47.1 secs

     total energy              =   -1420.80446052 Ry
     estimated scf accuracy    <       0.00010480 Ry

     iteration # 14     ecut=    40.00 Ry     beta= 0.50
     Davidson diagonalization with overlap
     ethr =  7.94E-08,  avg # of iterations =  5.0

     negative rho (up, down):  4.864E-05 0.000E+00

     total cpu time spent up to now is       50.7 secs

     total energy              =   -1420.80447612 Ry
     estimated scf accuracy    <       0.00000669 Ry

     iteration # 15     ecut=    40.00 Ry     beta= 0.50
     Davidson diagonalization with overlap
     ethr =  6.20E-09,  avg # of iterations = 10.0

     negative rho (up, down):  2.184E-05 0.000E+00

     total cpu time spent up to now is       54.5 secs

     total energy              =   -1420.80447692 Ry
     estimated scf accuracy    <       0.00001194 Ry

     iteration # 16     ecut=    40.00 Ry     beta= 0.50
     Davidson diagonalization with overlap
     ethr =  6.20E-09,  avg # of iterations =  2.0

     negative rho (up, down):  3.243E-05 0.000E+00

     total cpu time spent up to now is       57.8 secs

     total energy              =   -1420.80447758 Ry
     estimated scf accuracy    <       0.00000244 Ry

     iteration # 17     ecut=    40.00 Ry     beta= 0.50
     Davidson diagonalization with overlap
     ethr =  2.26E-09,  avg # of iterations =  5.0

     negative rho (up, down):  3.628E-05 0.000E+00

     total cpu time spent up to now is       61.6 secs

     total energy              =   -1420.80447803 Ry
     estimated scf accuracy    <       0.00000257 Ry

     iteration # 18     ecut=    40.00 Ry     beta= 0.50
     Davidson diagonalization with overlap
     ethr =  2.26E-09,  avg # of iterations =  1.0

     negative rho (up, down):  3.066E-05 0.000E+00

     total cpu time spent up to now is       65.0 secs

     total energy              =   -1420.80447801 Ry
     estimated scf accuracy    <       0.00000078 Ry

     iteration # 19     ecut=    40.00 Ry     beta= 0.50
     Davidson diagonalization with overlap
     ethr =  7.22E-10,  avg # of iterations =  1.0

     negative rho (up, down):  2.623E-05 0.000E+00

     total cpu time spent up to now is       68.4 secs

     total energy              =   -1420.80447809 Ry
     estimated scf accuracy    <       0.00000017 Ry

     iteration # 20     ecut=    40.00 Ry     beta= 0.50
     Davidson diagonalization with overlap
     ethr =  1.59E-10,  avg # of iterations =  5.0

     negative rho (up, down):  3.627E-05 0.000E+00

     total cpu time spent up to now is       71.5 secs

     End of self-consistent calculation

          k = 0.0000 0.0000 0.0000 ( 24166 PWs)   bands (ev):

   -10.3660  -9.0900  -8.3660  -8.3660  -8.3660  -8.3660  -7.1053  -7.1053
    -7.1052  -7.1052  -7.0444  -6.3954  -6.3954  -6.3954  -6.3954  -5.1501
    -5.1501  -5.1501  -5.1500  -5.0811  -5.0811  -5.0811  -5.0811  -4.2222
    -3.1477  -3.1477  -3.1477  -3.1477  -2.5369  -2.5368  -2.5368  -2.5368
    -2.2741  -2.2741  -2.2741  -2.2741  -1.9222  -1.3233  -1.3233  -1.3233
    -1.3233  -1.2396  -1.2396  -1.2396  -1.2396  -0.4065  -0.4065  -0.4065
    -0.4065  -0.0802  -0.0802  -0.0802  -0.0802  -0.0456  -0.0456  -0.0456
    -0.0456   0.2047   0.2047   0.2047   0.2047   0.6720   0.6720   0.6720
     0.6720

     the Fermi energy is     0.0346 ev

!    total energy              =   -1420.80447812 Ry
     total all-electron energy =    -17481.944615 Ry
     estimated scf accuracy    <       0.00000006 Ry
     smearing contrib. (-TS)   =      -0.13080620 Ry
     internal energy E=F+TS    =   -1420.67367192 Ry

     The total energy is F=E-TS. E is the sum of the following terms:
     one-electron contribution =   -1539.53104474 Ry
     hartree contribution      =     796.58207833 Ry
     xc contribution           =     -91.09072763 Ry
     ewald contribution        =     661.72892460 Ry
     one-center paw contrib.   =   -1248.36290249 Ry

     convergence has been achieved in  20 iterations

     negative rho (up, down):  3.627E-05 0.000E+00

     Forces acting on atoms (cartesian axes, Ry/au):

     atom    1 type  1   force =     0.00000000    0.00000000    0.01399766
     atom    2 type  1   force =    -0.00000000   -0.00000015    0.01399782
     atom    3 type  1   force =     0.00000000    0.00000015    0.01399782
     atom    4 type  1   force =    -0.00000015    0.00000000    0.01399782
     atom    5 type  1   force =    -0.00000015   -0.00000015    0.01399785
     atom    6 type  1   force =    -0.00000015    0.00000015    0.01399785
     atom    7 type  1   force =     0.00000015   -0.00000000    0.01399782
     atom    8 type  1   force =     0.00000015   -0.00000015    0.01399785
     atom    9 type  1   force =     0.00000015    0.00000015    0.01399785
     atom   10 type  1   force =    -0.00000027   -0.00000027   -0.00688232
     atom   11 type  1   force =    -0.00000010    0.00000000   -0.00688225
     atom   12 type  1   force =    -0.00000027    0.00000027   -0.00688232
     atom   13 type  1   force =     0.00000000   -0.00000010   -0.00688225
     atom   14 type  1   force =     0.00000000    0.00000000   -0.00688196
     atom   15 type  1   force =     0.00000000    0.00000010   -0.00688225
     atom   16 type  1   force =     0.00000027   -0.00000027   -0.00688232
     atom   17 type  1   force =     0.00000010   -0.00000000   -0.00688225
     atom   18 type  1   force =     0.00000027    0.00000027   -0.00688232
     atom   19 type  1   force =     0.00000000    0.00000000    0.00983220
     atom   20 type  1   force =     0.00000000   -0.00000002    0.00983376
     atom   21 type  1   force =     0.00000000    0.00000002    0.00983376
     atom   22 type  1   force =    -0.00000002    0.00000000    0.00983376
     atom   23 type  1   force =     0.00000045    0.00000045    0.00983480
     atom   24 type  1   force =     0.00000045   -0.00000045    0.00983480
     atom   25 type  1   force =     0.00000002    0.00000000    0.00983376
     atom   26 type  1   force =    -0.00000045    0.00000045    0.00983480
     atom   27 type  1   force =    -0.00000045   -0.00000045    0.00983480
     atom   28 type  1   force =     0.00000071    0.00000071   -0.01694915
     atom   29 type  1   force =     0.00000071   -0.00000000   -0.01694989
     atom   30 type  1   force =     0.00000071   -0.00000071   -0.01694915
     atom   31 type  1   force =     0.00000000    0.00000071   -0.01694989
     atom   32 type  1   force =     0.00000000    0.00000000   -0.01695041
     atom   33 type  1   force =    -0.00000000   -0.00000071   -0.01694989
     atom   34 type  1   force =    -0.00000071    0.00000071   -0.01694915
     atom   35 type  1   force =    -0.00000071    0.00000000   -0.01694989
     atom   36 type  1   force =    -0.00000071   -0.00000071   -0.01694915

     Total force =     0.058788     Total SCF correction =     0.000257

     BFGS Geometry Optimization
     Energy error            =      0.0E+00 Ry
     Gradient error          =      1.7E-02 Ry/Bohr

     number of scf cycles    =   1
     number of bfgs steps    =   0

     energy             new  =   -1420.8044781163 Ry

     new trust radius        =       0.0169504090 bohr
     new conv_thr            =       0.0000001000 Ry


ATOMIC_POSITIONS (alat)
Al               0.0000000000        0.0000000000        0.0000000000    0   0   0
Al               0.0000000000        0.9999999976        0.0000000000    0   0   0
Al               0.0000000000        1.9999999953        0.0000000000    0   0   0
Al               0.9999999976        0.0000000000        0.0000000000    0   0   0
Al               0.9999999976        0.9999999976        0.0000000000    0   0   0
Al               0.9999999976        1.9999999953        0.0000000000    0   0   0
Al               1.9999999953        0.0000000000        0.0000000000    0   0   0
Al               1.9999999953        0.9999999976        0.0000000000    0   0   0
Al               1.9999999953        1.9999999953        0.0000000000    0   0   0
Al               0.4999999988        0.4999999988        0.7071067673    0   0   0
Al               0.4999999988        1.4999999965        0.7071067673    0   0   0
Al               0.4999999988        2.4999999941        0.7071067673    0   0   0
Al               1.4999999965        0.4999999988        0.7071067673    0   0   0
Al               1.4999999965        1.4999999965        0.7071067673    0   0   0
Al               1.4999999965        2.4999999941        0.7071067673    0   0   0
Al               2.4999999941        0.4999999988        0.7071067673    0   0   0
Al               2.4999999941        1.4999999965        0.7071067673    0   0   0
Al               2.4999999941        2.4999999941        0.7071067673    0   0   0
Al               0.0000000000        0.0000000000        1.4325853677    0   0   1
Al               0.0000000000        0.9999999976        1.4325820612    0   0   1
Al               0.0000000000        1.9999999953        1.4325820612    0   0   1
Al               0.9999999976        0.0000000000        1.4325820612    0   0   1
Al               0.9999999976        0.9999999976        1.4325812964    0   0   1
Al               0.9999999976        1.9999999953        1.4325812964    0   0   1
Al               1.9999999953        0.0000000000        1.4325820612    0   0   1
Al               1.9999999953        0.9999999976        1.4325812964    0   0   1
Al               1.9999999953        1.9999999953        1.4325812964    0   0   1
Al               0.4999999988        0.4999999988        2.1534842528    0   0   1
Al               0.4999999988        1.4999999965        2.1534829279    0   0   1
Al               0.4999999988        2.4999999941        2.1534842528    0   0   1
Al               1.4999999965        0.4999999988        2.1534829279    0   0   1
Al               1.4999999965        1.4999999965        2.1534850891    0   0   1
Al               1.4999999965        2.4999999941        2.1534829279    0   0   1
Al               2.4999999941        0.4999999988        2.1534842528    0   0   1
Al               2.4999999941        1.4999999965        2.1534829279    0   0   1
Al               2.4999999941        2.4999999941        2.1534842528    0   0   1



     Writing config-only to output data dir ./tmp/Al.save/ :
     XML data file
     NEW-OLD atomic charge density approx. for the potential

     negative rho (up, down):  3.723E-05 0.000E+00

     total cpu time spent up to now is       75.7 secs

     Self-consistent Calculation

     iteration #  1     ecut=    40.00 Ry     beta= 0.50
     Davidson diagonalization with overlap
     ethr =  1.00E-06,  avg # of iterations =  7.0

     negative rho (up, down):  3.294E-05 0.000E+00

     total cpu time spent up to now is       79.7 secs

     total energy              =   -1420.80788147 Ry
     estimated scf accuracy    <       0.00208516 Ry

     iteration #  2     ecut=    40.00 Ry     beta= 0.50
     Davidson diagonalization with overlap
     ethr =  1.93E-06,  avg # of iterations =  1.0

     negative rho (up, down):  1.740E-05 0.000E+00

     total cpu time spent up to now is       83.0 secs

     total energy              =   -1420.80780345 Ry
     estimated scf accuracy    <       0.00066125 Ry

     iteration #  3     ecut=    40.00 Ry     beta= 0.50
     Davidson diagonalization with overlap
     ethr =  6.12E-07,  avg # of iterations =  5.0

     negative rho (up, down):  1.411E-05 0.000E+00

     total cpu time spent up to now is       86.6 secs

     total energy              =   -1420.80787028 Ry
     estimated scf accuracy    <       0.00013431 Ry

     iteration #  4     ecut=    40.00 Ry     beta= 0.50
     Davidson diagonalization with overlap
     ethr =  1.24E-07,  avg # of iterations =  5.0

     negative rho (up, down):  8.775E-06 0.000E+00

     total cpu time spent up to now is       90.1 secs

     total energy              =   -1420.80788382 Ry
     estimated scf accuracy    <       0.00001409 Ry

     iteration #  5     ecut=    40.00 Ry     beta= 0.50
     Davidson diagonalization with overlap
     ethr =  1.30E-08,  avg # of iterations =  6.0

     negative rho (up, down):  9.926E-06 0.000E+00

     total cpu time spent up to now is       93.9 secs

     total energy              =   -1420.80787969 Ry
     estimated scf accuracy    <       0.00007090 Ry

     iteration #  6     ecut=    40.00 Ry     beta= 0.50
     Davidson diagonalization with overlap
     ethr =  1.30E-08,  avg # of iterations =  7.0

     negative rho (up, down):  1.328E-05 0.000E+00

     total cpu time spent up to now is       97.5 secs

     total energy              =   -1420.80788346 Ry
     estimated scf accuracy    <       0.00000055 Ry

     iteration #  7     ecut=    40.00 Ry     beta= 0.50
     Davidson diagonalization with overlap
     ethr =  5.11E-10,  avg # of iterations = 10.0

     negative rho (up, down):  1.816E-05 0.000E+00

     total cpu time spent up to now is      101.7 secs

     total energy              =   -1420.80788326 Ry
     estimated scf accuracy    <       0.00001048 Ry

     iteration #  8     ecut=    40.00 Ry     beta= 0.50
     Davidson diagonalization with overlap
     ethr =  5.11E-10,  avg # of iterations =  7.0

     negative rho (up, down):  2.142E-05 0.000E+00

     total cpu time spent up to now is      105.5 secs

     total energy              =   -1420.80788354 Ry
     estimated scf accuracy    <       0.00000017 Ry

     iteration #  9     ecut=    40.00 Ry     beta= 0.50
     Davidson diagonalization with overlap
     ethr =  1.57E-10,  avg # of iterations =  5.0

     negative rho (up, down):  3.641E-05 0.000E+00

     total cpu time spent up to now is      108.4 secs

     End of self-consistent calculation

          k = 0.0000 0.0000 0.0000 ( 24166 PWs)   bands (ev):

   -10.3683  -9.1000  -8.3682  -8.3682  -8.3682  -8.3682  -7.1153  -7.1153
    -7.1153  -7.1153  -7.0364  -6.3977  -6.3977  -6.3977  -6.3977  -5.1604
    -5.1604  -5.1604  -5.1603  -5.0732  -5.0732  -5.0732  -5.0732  -4.2151
    -3.1399  -3.1399  -3.1399  -3.1399  -2.5391  -2.5391  -2.5391  -2.5391
    -2.2672  -2.2672  -2.2672  -2.2672  -1.9151  -1.3339  -1.3339  -1.3339
    -1.3339  -1.2420  -1.2420  -1.2420  -1.2420  -0.4004  -0.4004  -0.4004
    -0.4004  -0.0925  -0.0925  -0.0925  -0.0925  -0.0396  -0.0396  -0.0396
    -0.0396   0.2033   0.2033   0.2033   0.2033   0.6795   0.6795   0.6795
     0.6795

     the Fermi energy is     0.0347 ev

!    total energy              =   -1420.80788347 Ry
     total all-electron energy =    -17481.948020 Ry
     estimated scf accuracy    <       0.00000006 Ry
     smearing contrib. (-TS)   =      -0.13243561 Ry
     internal energy E=F+TS    =   -1420.67544786 Ry

     The total energy is F=E-TS. E is the sum of the following terms:
     one-electron contribution =   -1541.31466683 Ry
     hartree contribution      =     797.49256012 Ry
     xc contribution           =     -91.11245399 Ry
     ewald contribution        =     662.62429108 Ry
     one-center paw contrib.   =   -1248.36517824 Ry

     convergence has been achieved in   9 iterations

     negative rho (up, down):  3.641E-05 0.000E+00

     Forces acting on atoms (cartesian axes, Ry/au):

     atom    1 type  1   force =     0.00000000    0.00000000    0.01442293
     atom    2 type  1   force =     0.00000000   -0.00000006    0.01442242
     atom    3 type  1   force =    -0.00000000    0.00000006    0.01442242
     atom    4 type  1   force =    -0.00000006    0.00000000    0.01442242
     atom    5 type  1   force =     0.00000005    0.00000005    0.01442253
     atom    6 type  1   force =     0.00000005   -0.00000005    0.01442253
     atom    7 type  1   force =     0.00000006   -0.00000000    0.01442242
     atom    8 type  1   force =    -0.00000005    0.00000005    0.01442253
     atom    9 type  1   force =    -0.00000005   -0.00000005    0.01442253
     atom   10 type  1   force =    -0.00000036   -0.00000036   -0.00701255
     atom   11 type  1   force =    -0.00000004    0.00000000   -0.00701249
     atom   12 type  1   force =    -0.00000036    0.00000036   -0.00701255
     atom   13 type  1   force =     0.00000000   -0.00000004   -0.00701249
     atom   14 type  1   force =     0.00000000    0.00000000   -0.00701300
     atom   15 type  1   force =    -0.00000000    0.00000004   -0.00701249
     atom   16 type  1   force =     0.00000036   -0.00000036   -0.00701255
     atom   17 type  1   force =     0.00000004    0.00000000   -0.00701249
     atom   18 type  1   force =     0.00000036    0.00000036   -0.00701255
     atom   19 type  1   force =     0.00000000    0.00000000    0.00922010
     atom   20 type  1   force =     0.00000000    0.00000014    0.00922219
     atom   21 type  1   force =     0.00000000   -0.00000014    0.00922219
     atom   22 type  1   force =     0.00000014    0.00000000    0.00922219
     atom   23 type  1   force =    -0.00000018   -0.00000018    0.00922260
     atom   24 type  1   force =    -0.00000018    0.00000018    0.00922260
     atom   25 type  1   force =    -0.00000014    0.00000000    0.00922219
     atom   26 type  1   force =     0.00000018   -0.00000018    0.00922260
     atom   27 type  1   force =     0.00000018    0.00000018    0.00922260
     atom   28 type  1   force =     0.00000032    0.00000032   -0.01663227
     atom   29 type  1   force =    -0.00000069   -0.00000000   -0.01663207
     atom   30 type  1   force =     0.00000032   -0.00000032   -0.01663227
     atom   31 type  1   force =     0.00000000   -0.00000069   -0.01663207
     atom   32 type  1   force =     0.00000000    0.00000000   -0.01663147
     atom   33 type  1   force =     0.00000000    0.00000069   -0.01663207
     atom   34 type  1   force =    -0.00000032    0.00000032   -0.01663227
     atom   35 type  1   force =     0.00000069   -0.00000000   -0.01663207
     atom   36 type  1   force =    -0.00000032   -0.00000032   -0.01663227

     Total force =     0.057053     Total SCF correction =     0.000206
     Energy error            =      3.4E-03 Ry
     Gradient error          =      1.7E-02 Ry/Bohr

     number of scf cycles    =   2
     number of bfgs steps    =   1

     energy             old  =   -1420.8044781163 Ry
     energy             new  =   -1420.8078834688 Ry

     CASE: energy            _new < energy            _old


     WARNING: bfgs curvature condition failed, Theta= 0.824
     new trust radius        =       0.0186454500 bohr
     new conv_thr            =       0.0000000166 Ry


ATOMIC_POSITIONS (alat)
Al               0.0000000000        0.0000000000        0.0000000000    0   0   0
Al               0.0000000000        0.9999999976        0.0000000000    0   0   0
Al               0.0000000000        1.9999999953        0.0000000000    0   0   0
Al               0.9999999976        0.0000000000        0.0000000000    0   0   0
Al               0.9999999976        0.9999999976        0.0000000000    0   0   0
Al               0.9999999976        1.9999999953        0.0000000000    0   0   0
Al               1.9999999953        0.0000000000        0.0000000000    0   0   0
Al               1.9999999953        0.9999999976        0.0000000000    0   0   0
Al               1.9999999953        1.9999999953        0.0000000000    0   0   0
Al               0.4999999988        0.4999999988        0.7071067673    0   0   0
Al               0.4999999988        1.4999999965        0.7071067673    0   0   0
Al               0.4999999988        2.4999999941        0.7071067673    0   0   0
Al               1.4999999965        0.4999999988        0.7071067673    0   0   0
Al               1.4999999965        1.4999999965        0.7071067673    0   0   0
Al               1.4999999965        2.4999999941        0.7071067673    0   0   0
Al               2.4999999941        0.4999999988        0.7071067673    0   0   0
Al               2.4999999941        1.4999999965        0.7071067673    0   0   0
Al               2.4999999941        2.4999999941        0.7071067673    0   0   0
Al               0.0000000000        0.0000000000        1.4345018231    0   0   1
Al               0.0000000000        0.9999999976        1.4344989499    0   0   1
Al               0.0000000000        1.9999999953        1.4344989499    0   0   1
Al               0.9999999976        0.0000000000        1.4344989499    0   0   1
Al               0.9999999976        0.9999999976        1.4344982725    0   0   1
Al               0.9999999976        1.9999999953        1.4344982725    0   0   1
Al               1.9999999953        0.0000000000        1.4344989499    0   0   1
Al               1.9999999953        0.9999999976        1.4344982725    0   0   1
Al               1.9999999953        1.9999999953        1.4344982725    0   0   1
Al               0.4999999988        0.4999999988        2.1500278151    0   0   1
Al               0.4999999988        1.4999999965        2.1500265305    0   0   1
Al               0.4999999988        2.4999999941        2.1500278151    0   0   1
Al               1.4999999965        0.4999999988        2.1500265305    0   0   1
Al               1.4999999965        1.4999999965        2.1500288151    0   0   1
Al               1.4999999965        2.4999999941        2.1500265305    0   0   1
Al               2.4999999941        0.4999999988        2.1500278151    0   0   1
Al               2.4999999941        1.4999999965        2.1500265305    0   0   1
Al               2.4999999941        2.4999999941        2.1500278151    0   0   1



     Writing config-only to output data dir ./tmp/Al.save/ :
     XML data file
     NEW-OLD atomic charge density approx. for the potential

     negative rho (up, down):  3.738E-05 0.000E+00

     total cpu time spent up to now is      112.5 secs

     Self-consistent Calculation

     iteration #  1     ecut=    40.00 Ry     beta= 0.50
     Davidson diagonalization with overlap
     ethr =  1.00E-06,  avg # of iterations =  7.0

     negative rho (up, down):  2.880E-05 0.000E+00

     total cpu time spent up to now is      116.5 secs

     total energy              =   -1420.81142637 Ry
     estimated scf accuracy    <       0.00270863 Ry

     iteration #  2     ecut=    40.00 Ry     beta= 0.50
     Davidson diagonalization with overlap
     ethr =  2.51E-06,  avg # of iterations =  1.0

     negative rho (up, down):  1.541E-05 0.000E+00

     total cpu time spent up to now is      119.9 secs

     total energy              =   -1420.81139498 Ry
     estimated scf accuracy    <       0.00051038 Ry

     iteration #  3     ecut=    40.00 Ry     beta= 0.50
     Davidson diagonalization with overlap
     ethr =  4.73E-07,  avg # of iterations =  8.0

     negative rho (up, down):  1.268E-05 0.000E+00

     total cpu time spent up to now is      123.6 secs

     total energy              =   -1420.81145664 Ry
     estimated scf accuracy    <       0.00017562 Ry

     iteration #  4     ecut=    40.00 Ry     beta= 0.50
     Davidson diagonalization with overlap
     ethr =  1.63E-07,  avg # of iterations =  5.0

     negative rho (up, down):  8.712E-06 0.000E+00

     total cpu time spent up to now is      127.2 secs

     total energy              =   -1420.81147195 Ry
     estimated scf accuracy    <       0.00004096 Ry

     iteration #  5     ecut=    40.00 Ry     beta= 0.50
     Davidson diagonalization with overlap
     ethr =  3.79E-08,  avg # of iterations =  2.0

     negative rho (up, down):  9.907E-06 0.000E+00

     total cpu time spent up to now is      130.6 secs

     total energy              =   -1420.81146522 Ry
     estimated scf accuracy    <       0.00008465 Ry

     iteration #  6     ecut=    40.00 Ry     beta= 0.50
     Davidson diagonalization with overlap
     ethr =  3.79E-08,  avg # of iterations =  5.0

     negative rho (up, down):  1.484E-05 0.000E+00

     total cpu time spent up to now is      134.2 secs

     total energy              =   -1420.81147124 Ry
     estimated scf accuracy    <       0.00000242 Ry

     iteration #  7     ecut=    40.00 Ry     beta= 0.50
     Davidson diagonalization with overlap
     ethr =  2.24E-09,  avg # of iterations =  7.0

     negative rho (up, down):  1.986E-05 0.000E+00

     total cpu time spent up to now is      137.9 secs

     total energy              =   -1420.81147130 Ry
     estimated scf accuracy    <       0.00000739 Ry

     iteration #  8     ecut=    40.00 Ry     beta= 0.50
     Davidson diagonalization with overlap
     ethr =  2.24E-09,  avg # of iterations =  2.0

     negative rho (up, down):  2.180E-05 0.000E+00

     total cpu time spent up to now is      141.3 secs

     total energy              =   -1420.81147155 Ry
     estimated scf accuracy    <       0.00000044 Ry

     iteration #  9     ecut=    40.00 Ry     beta= 0.50
     Davidson diagonalization with overlap
     ethr =  4.07E-10,  avg # of iterations =  5.0

     negative rho (up, down):  2.494E-05 0.000E+00

     total cpu time spent up to now is      144.8 secs

     total energy              =   -1420.81147159 Ry
     estimated scf accuracy    <       0.00000027 Ry

     iteration # 10     ecut=    40.00 Ry     beta= 0.50
     Davidson diagonalization with overlap
     ethr =  2.50E-10,  avg # of iterations =  2.0

     negative rho (up, down):  3.423E-05 0.000E+00

     total cpu time spent up to now is      148.2 secs

     total energy              =   -1420.81147155 Ry
     estimated scf accuracy    <       0.00000016 Ry

     iteration # 11     ecut=    40.00 Ry     beta= 0.50
     Davidson diagonalization with overlap
     ethr =  1.47E-10,  avg # of iterations =  6.0

     negative rho (up, down):  3.415E-05 0.000E+00

     total cpu time spent up to now is      151.9 secs

     total energy              =   -1420.81147158 Ry
     estimated scf accuracy    <       0.00000008 Ry

     iteration # 12     ecut=    40.00 Ry     beta= 0.50
     Davidson diagonalization with overlap
     ethr =  7.74E-11,  avg # of iterations =  2.0

     negative rho (up, down):  3.458E-05 0.000E+00

     total cpu time spent up to now is      155.3 secs

     total energy              =   -1420.81147158 Ry
     estimated scf accuracy    <       0.00000009 Ry

     iteration # 13     ecut=    40.00 Ry     beta= 0.50
     Davidson diagonalization with overlap
     ethr =  7.74E-11,  avg # of iterations =  1.0

     negative rho (up, down):  3.452E-05 0.000E+00

     total cpu time spent up to now is      158.7 secs

     total energy              =   -1420.81147158 Ry
     estimated scf accuracy    <       0.00000010 Ry

     iteration # 14     ecut=    40.00 Ry     beta= 0.50
     Davidson diagonalization with overlap
     ethr =  7.74E-11,  avg # of iterations =  2.0

     negative rho (up, down):  3.396E-05 0.000E+00

     total cpu time spent up to now is      162.1 secs

     total energy              =   -1420.81147158 Ry
     estimated scf accuracy    <       0.00000017 Ry

     iteration # 15     ecut=    40.00 Ry     beta= 0.50
     Davidson diagonalization with overlap
     ethr =  7.74E-11,  avg # of iterations =  2.0

     negative rho (up, down):  3.476E-05 0.000E+00

     total cpu time spent up to now is      165.5 secs

     total energy              =   -1420.81147157 Ry
     estimated scf accuracy    <       0.00000012 Ry

     iteration # 16     ecut=    40.00 Ry     beta= 0.50
     Davidson diagonalization with overlap
     ethr =  7.74E-11,  avg # of iterations =  1.0

     negative rho (up, down):  3.563E-05 0.000E+00

     total cpu time spent up to now is      168.8 secs

     total energy              =   -1420.81147157 Ry
     estimated scf accuracy    <       0.00000002 Ry

     iteration # 17     ecut=    40.00 Ry     beta= 0.50
     Davidson diagonalization with overlap
     ethr =  1.91E-11,  avg # of iterations =  2.0

     negative rho (up, down):  3.654E-05 0.000E+00

     total cpu time spent up to now is      171.6 secs

     End of self-consistent calculation

          k = 0.0000 0.0000 0.0000 ( 24166 PWs)   bands (ev):

   -10.3699  -9.1096  -8.3699  -8.3699  -8.3699  -8.3699  -7.1251  -7.1251
    -7.1251  -7.1251  -7.0268  -6.3994  -6.3994  -6.3994  -6.3994  -5.1703
    -5.1703  -5.1703  -5.1703  -5.0637  -5.0637  -5.0637  -5.0637  -4.2064
    -3.1304  -3.1304  -3.1304  -3.1304  -2.5407  -2.5407  -2.5407  -2.5407
    -2.2587  -2.2587  -2.2587  -2.2587  -1.9063  -1.3441  -1.3441  -1.3441
    -1.3441  -1.2440  -1.2440  -1.2440  -1.2440  -0.3928  -0.3928  -0.3928
    -0.3928  -0.1047  -0.1047  -0.1047  -0.1047  -0.0319  -0.0319  -0.0319
    -0.0319   0.2026   0.2026   0.2026   0.2026   0.6887   0.6887   0.6887
     0.6887

     the Fermi energy is     0.0358 ev

!    total energy              =   -1420.81147156 Ry
     total all-electron energy =    -17481.951609 Ry
     estimated scf accuracy    <       0.00000001 Ry
     smearing contrib. (-TS)   =      -0.13408340 Ry
     internal energy E=F+TS    =   -1420.67738816 Ry

     The total energy is F=E-TS. E is the sum of the following terms:
     one-electron contribution =   -1543.28540692 Ry
     hartree contribution      =     798.49098074 Ry
     xc contribution           =     -91.13657422 Ry
     ewald contribution        =     663.62144766 Ry
     one-center paw contrib.   =   -1248.36783542 Ry

     convergence has been achieved in  17 iterations

     negative rho (up, down):  3.654E-05 0.000E+00

     Forces acting on atoms (cartesian axes, Ry/au):

     atom    1 type  1   force =     0.00000000    0.00000000    0.01487200
     atom    2 type  1   force =    -0.00000000    0.00000033    0.01487144
     atom    3 type  1   force =     0.00000000   -0.00000033    0.01487144
     atom    4 type  1   force =     0.00000033   -0.00000000    0.01487144
     atom    5 type  1   force =     0.00000001    0.00000001    0.01487160
     atom    6 type  1   force =     0.00000001   -0.00000001    0.01487160
     atom    7 type  1   force =    -0.00000033    0.00000000    0.01487144
     atom    8 type  1   force =    -0.00000001    0.00000001    0.01487160
     atom    9 type  1   force =    -0.00000001   -0.00000001    0.01487160
     atom   10 type  1   force =    -0.00000033   -0.00000033   -0.00716407
     atom   11 type  1   force =     0.00000031   -0.00000000   -0.00716447
     atom   12 type  1   force =    -0.00000033    0.00000033   -0.00716407
     atom   13 type  1   force =     0.00000000    0.00000031   -0.00716447
     atom   14 type  1   force =     0.00000000    0.00000000   -0.00716399
     atom   15 type  1   force =     0.00000000   -0.00000031   -0.00716447
     atom   16 type  1   force =     0.00000033   -0.00000033   -0.00716407
     atom   17 type  1   force =    -0.00000031    0.00000000   -0.00716447
     atom   18 type  1   force =     0.00000033    0.00000033   -0.00716407
     atom   19 type  1   force =     0.00000000    0.00000000    0.00855253
     atom   20 type  1   force =     0.00000000   -0.00000043    0.00855404
     atom   21 type  1   force =    -0.00000000    0.00000043    0.00855404
     atom   22 type  1   force =    -0.00000043   -0.00000000    0.00855404
     atom   23 type  1   force =     0.00000011    0.00000011    0.00855380
     atom   24 type  1   force =     0.00000011   -0.00000011    0.00855380
     atom   25 type  1   force =     0.00000043    0.00000000    0.00855404
     atom   26 type  1   force =    -0.00000011    0.00000011    0.00855380
     atom   27 type  1   force =    -0.00000011   -0.00000011    0.00855380
     atom   28 type  1   force =     0.00000002    0.00000002   -0.01626108
     atom   29 type  1   force =     0.00000003    0.00000000   -0.01626108
     atom   30 type  1   force =     0.00000002   -0.00000002   -0.01626108
     atom   31 type  1   force =     0.00000000    0.00000003   -0.01626108
     atom   32 type  1   force =     0.00000000    0.00000000   -0.01626129
     atom   33 type  1   force =     0.00000000   -0.00000003   -0.01626108
     atom   34 type  1   force =    -0.00000002    0.00000002   -0.01626108
     atom   35 type  1   force =    -0.00000003    0.00000000   -0.01626108
     atom   36 type  1   force =    -0.00000002   -0.00000002   -0.01626108

     Total force =     0.055121     Total SCF correction =     0.000120
     Energy error            =      3.6E-03 Ry
     Gradient error          =      1.6E-02 Ry/Bohr

     number of scf cycles    =   3
     number of bfgs steps    =   2

     energy             old  =   -1420.8078834688 Ry
     energy             new  =   -1420.8114715634 Ry

     CASE: energy            _new < energy            _old

     new trust radius        =       0.0279681749 bohr
     new conv_thr            =       0.0000000163 Ry


ATOMIC_POSITIONS (alat)
Al               0.0000000000        0.0000000000        0.0000000000    0   0   0
Al               0.0000000000        0.9999999976        0.0000000000    0   0   0
Al               0.0000000000        1.9999999953        0.0000000000    0   0   0
Al               0.9999999976        0.0000000000        0.0000000000    0   0   0
Al               0.9999999976        0.9999999976        0.0000000000    0   0   0
Al               0.9999999976        1.9999999953        0.0000000000    0   0   0
Al               1.9999999953        0.0000000000        0.0000000000    0   0   0
Al               1.9999999953        0.9999999976        0.0000000000    0   0   0
Al               1.9999999953        1.9999999953        0.0000000000    0   0   0
Al               0.4999999988        0.4999999988        0.7071067673    0   0   0
Al               0.4999999988        1.4999999965        0.7071067673    0   0   0
Al               0.4999999988        2.4999999941        0.7071067673    0   0   0
Al               1.4999999965        0.4999999988        0.7071067673    0   0   0
Al               1.4999999965        1.4999999965        0.7071067673    0   0   0
Al               1.4999999965        2.4999999941        0.7071067673    0   0   0
Al               2.4999999941        0.4999999988        0.7071067673    0   0   0
Al               2.4999999941        1.4999999965        0.7071067673    0   0   0
Al               2.4999999941        2.4999999941        0.7071067673    0   0   0
Al               0.0000000000        0.0000000000        1.4372536111    0   0   1
Al               0.0000000000        0.9999999976        1.4372512490    0   0   1
Al               0.0000000000        1.9999999953        1.4372512490    0   0   1
Al               0.9999999976        0.0000000000        1.4372512490    0   0   1
Al               0.9999999976        0.9999999976        1.4372505292    0   0   1
Al               0.9999999976        1.9999999953        1.4372505292    0   0   1
Al               1.9999999953        0.0000000000        1.4372512490    0   0   1
Al               1.9999999953        0.9999999976        1.4372505292    0   0   1
Al               1.9999999953        1.9999999953        1.4372505292    0   0   1
Al               0.4999999988        0.4999999988        2.1448431740    0   0   1
Al               0.4999999988        1.4999999965        2.1448418984    0   0   1
Al               0.4999999988        2.4999999941        2.1448431740    0   0   1
Al               1.4999999965        0.4999999988        2.1448418984    0   0   1
Al               1.4999999965        1.4999999965        2.1448441585    0   0   1
Al               1.4999999965        2.4999999941        2.1448418984    0   0   1
Al               2.4999999941        0.4999999988        2.1448431740    0   0   1
Al               2.4999999941        1.4999999965        2.1448418984    0   0   1
Al               2.4999999941        2.4999999941        2.1448431740    0   0   1



     Writing config-only to output data dir ./tmp/Al.save/ :
     XML data file
     NEW-OLD atomic charge density approx. for the potential

     negative rho (up, down):  3.830E-05 0.000E+00

     total cpu time spent up to now is      175.6 secs

     Self-consistent Calculation

     iteration #  1     ecut=    40.00 Ry     beta= 0.50
     Davidson diagonalization with overlap
     ethr =  1.00E-06,  avg # of iterations = 10.0

     negative rho (up, down):  2.261E-05 0.000E+00

     total cpu time spent up to now is      179.9 secs

     total energy              =   -1420.81655209 Ry
     estimated scf accuracy    <       0.00499972 Ry

     iteration #  2     ecut=    40.00 Ry     beta= 0.50
     Davidson diagonalization with overlap
     ethr =  4.63E-06,  avg # of iterations =  1.0

     negative rho (up, down):  5.872E-06 0.000E+00

     total cpu time spent up to now is      183.3 secs

     total energy              =   -1420.81635978 Ry
     estimated scf accuracy    <       0.00138637 Ry

     iteration #  3     ecut=    40.00 Ry     beta= 0.50
     Davidson diagonalization with overlap
     ethr =  1.28E-06,  avg # of iterations =  6.0

     negative rho (up, down):  4.770E-06 0.000E+00

     total cpu time spent up to now is      186.9 secs

     total energy              =   -1420.81652748 Ry
     estimated scf accuracy    <       0.00043266 Ry

     iteration #  4     ecut=    40.00 Ry     beta= 0.50
     Davidson diagonalization with overlap
     ethr =  4.01E-07,  avg # of iterations =  5.0

     negative rho (up, down):  2.129E-06 0.000E+00

     total cpu time spent up to now is      190.5 secs

     total energy              =   -1420.81656216 Ry
     estimated scf accuracy    <       0.00003358 Ry

     iteration #  5     ecut=    40.00 Ry     beta= 0.50
     Davidson diagonalization with overlap
     ethr =  3.11E-08,  avg # of iterations =  8.0

     negative rho (up, down):  2.513E-06 0.000E+00

     total cpu time spent up to now is      194.3 secs

     total energy              =   -1420.81655924 Ry
     estimated scf accuracy    <       0.00020414 Ry

     iteration #  6     ecut=    40.00 Ry     beta= 0.50
     Davidson diagonalization with overlap
     ethr =  3.11E-08,  avg # of iterations =  3.0

     negative rho (up, down):  4.704E-06 0.000E+00

     total cpu time spent up to now is      197.7 secs

     total energy              =   -1420.81655982 Ry
     estimated scf accuracy    <       0.00003758 Ry

     iteration #  7     ecut=    40.00 Ry     beta= 0.50
     Davidson diagonalization with overlap
     ethr =  3.11E-08,  avg # of iterations =  6.0

     negative rho (up, down):  8.071E-06 0.000E+00

     total cpu time spent up to now is      201.2 secs

     total energy              =   -1420.81656337 Ry
     estimated scf accuracy    <       0.00000464 Ry

     iteration #  8     ecut=    40.00 Ry     beta= 0.50
     Davidson diagonalization with overlap
     ethr =  4.29E-09,  avg # of iterations =  6.0

     negative rho (up, down):  1.149E-05 0.000E+00

     total cpu time spent up to now is      204.9 secs

     total energy              =   -1420.81656282 Ry
     estimated scf accuracy    <       0.00001536 Ry

     iteration #  9     ecut=    40.00 Ry     beta= 0.50
     Davidson diagonalization with overlap
     ethr =  4.29E-09,  avg # of iterations =  6.0

     negative rho (up, down):  1.668E-05 0.000E+00

     total cpu time spent up to now is      208.5 secs

     total energy              =   -1420.81656346 Ry
     estimated scf accuracy    <       0.00000046 Ry

     iteration # 10     ecut=    40.00 Ry     beta= 0.50
     Davidson diagonalization with overlap
     ethr =  4.29E-10,  avg # of iterations =  6.0

     negative rho (up, down):  2.434E-05 0.000E+00

     total cpu time spent up to now is      212.2 secs

     total energy              =   -1420.81656353 Ry
     estimated scf accuracy    <       0.00000062 Ry

     iteration # 11     ecut=    40.00 Ry     beta= 0.50
     Davidson diagonalization with overlap
     ethr =  4.29E-10,  avg # of iterations =  1.0

     negative rho (up, down):  3.467E-05 0.000E+00

     total cpu time spent up to now is      215.6 secs

     total energy              =   -1420.81656349 Ry
     estimated scf accuracy    <       0.00000056 Ry

     iteration # 12     ecut=    40.00 Ry     beta= 0.50
     Davidson diagonalization with overlap
     ethr =  4.29E-10,  avg # of iterations =  2.0

     negative rho (up, down):  3.623E-05 0.000E+00

     total cpu time spent up to now is      219.4 secs

     total energy              =   -1420.81656350 Ry
     estimated scf accuracy    <       0.00000006 Ry

     iteration # 13     ecut=    40.00 Ry     beta= 0.50
     Davidson diagonalization with overlap
     ethr =  5.71E-11,  avg # of iterations =  6.0

     negative rho (up, down):  3.662E-05 0.000E+00

     total cpu time spent up to now is      222.8 secs

     End of self-consistent calculation

          k = 0.0000 0.0000 0.0000 ( 24166 PWs)   bands (ev):

   -10.3732  -9.1237  -8.3732  -8.3732  -8.3732  -8.3732  -7.1393  -7.1393
    -7.1393  -7.1393  -7.0130  -6.4027  -6.4027  -6.4027  -6.4027  -5.1849
    -5.1849  -5.1849  -5.1849  -5.0500  -5.0500  -5.0500  -5.0500  -4.1936
    -3.1168  -3.1168  -3.1168  -3.1168  -2.5443  -2.5443  -2.5443  -2.5443
    -2.2461  -2.2461  -2.2461  -2.2461  -1.8931  -1.3592  -1.3592  -1.3592
    -1.3592  -1.2481  -1.2481  -1.2481  -1.2481  -0.3820  -0.3820  -0.3820
    -0.3820  -0.1227  -0.1227  -0.1227  -0.1227  -0.0204  -0.0204  -0.0204
    -0.0204   0.2011   0.2011   0.2011   0.2011   0.7018   0.7018   0.7018
     0.7018

     the Fermi energy is     0.0373 ev

!    total energy              =   -1420.81656350 Ry
     total all-electron energy =    -17481.956700 Ry
     estimated scf accuracy    <       0.00000002 Ry
     smearing contrib. (-TS)   =      -0.13634857 Ry
     internal energy E=F+TS    =   -1420.68021493 Ry

     The total energy is F=E-TS. E is the sum of the following terms:
     one-electron contribution =   -1546.28515780 Ry
     hartree contribution      =     800.01615044 Ry
     xc contribution           =     -91.17388204 Ry
     ewald contribution        =     665.13490870 Ry
     one-center paw contrib.   =   -1248.37223423 Ry

     convergence has been achieved in  13 iterations

     negative rho (up, down):  3.662E-05 0.000E+00

     Forces acting on atoms (cartesian axes, Ry/au):

     atom    1 type  1   force =     0.00000000    0.00000000    0.01556957
     atom    2 type  1   force =    -0.00000000    0.00000025    0.01556898
     atom    3 type  1   force =     0.00000000   -0.00000025    0.01556898
     atom    4 type  1   force =     0.00000025    0.00000000    0.01556898
     atom    5 type  1   force =     0.00000014    0.00000014    0.01556878
     atom    6 type  1   force =     0.00000014   -0.00000014    0.01556878
     atom    7 type  1   force =    -0.00000025   -0.00000000    0.01556898
     atom    8 type  1   force =    -0.00000014    0.00000014    0.01556878
     atom    9 type  1   force =    -0.00000014   -0.00000014    0.01556878
     atom   10 type  1   force =    -0.00000030   -0.00000030   -0.00742216
     atom   11 type  1   force =    -0.00000040    0.00000000   -0.00742219
     atom   12 type  1   force =    -0.00000030    0.00000030   -0.00742216
     atom   13 type  1   force =    -0.00000000   -0.00000040   -0.00742219
     atom   14 type  1   force =     0.00000000    0.00000000   -0.00742193
     atom   15 type  1   force =     0.00000000    0.00000040   -0.00742219
     atom   16 type  1   force =     0.00000030   -0.00000030   -0.00742216
     atom   17 type  1   force =     0.00000040    0.00000000   -0.00742219
     atom   18 type  1   force =     0.00000030    0.00000030   -0.00742216
     atom   19 type  1   force =     0.00000000    0.00000000    0.00750647
     atom   20 type  1   force =    -0.00000000   -0.00000017    0.00750732
     atom   21 type  1   force =    -0.00000000    0.00000017    0.00750732
     atom   22 type  1   force =    -0.00000017   -0.00000000    0.00750732
     atom   23 type  1   force =    -0.00000008   -0.00000008    0.00750748
     atom   24 type  1   force =    -0.00000008    0.00000008    0.00750748
     atom   25 type  1   force =     0.00000017    0.00000000    0.00750732
     atom   26 type  1   force =     0.00000008   -0.00000008    0.00750748
     atom   27 type  1   force =     0.00000008    0.00000008    0.00750748
     atom   28 type  1   force =     0.00000046    0.00000046   -0.01565399
     atom   29 type  1   force =     0.00000040   -0.00000000   -0.01565423
     atom   30 type  1   force =     0.00000046   -0.00000046   -0.01565399
     atom   31 type  1   force =     0.00000000    0.00000040   -0.01565423
     atom   32 type  1   force =     0.00000000    0.00000000   -0.01565413
     atom   33 type  1   force =    -0.00000000   -0.00000040   -0.01565423
     atom   34 type  1   force =    -0.00000046    0.00000046   -0.01565399
     atom   35 type  1   force =    -0.00000040    0.00000000   -0.01565423
     atom   36 type  1   force =    -0.00000046   -0.00000046   -0.01565399

     Total force =     0.052084     Total SCF correction =     0.000128
     Energy error            =      5.1E-03 Ry
     Gradient error          =      1.6E-02 Ry/Bohr

     number of scf cycles    =   4
     number of bfgs steps    =   3

     energy             old  =   -1420.8114715634 Ry
     energy             new  =   -1420.8165634965 Ry

     CASE: energy            _new < energy            _old

     new trust radius        =       0.0419522624 bohr
     new conv_thr            =       0.0000000157 Ry


ATOMIC_POSITIONS (alat)
Al               0.0000000000        0.0000000000        0.0000000000    0   0   0
Al               0.0000000000        0.9999999976        0.0000000000    0   0   0
Al               0.0000000000        1.9999999953        0.0000000000    0   0   0
Al               0.9999999976        0.0000000000        0.0000000000    0   0   0
Al               0.9999999976        0.9999999976        0.0000000000    0   0   0
Al               0.9999999976        1.9999999953        0.0000000000    0   0   0
Al               1.9999999953        0.0000000000        0.0000000000    0   0   0
Al               1.9999999953        0.9999999976        0.0000000000    0   0   0
Al               1.9999999953        1.9999999953        0.0000000000    0   0   0
Al               0.4999999988        0.4999999988        0.7071067673    0   0   0
Al               0.4999999988        1.4999999965        0.7071067673    0   0   0
Al               0.4999999988        2.4999999941        0.7071067673    0   0   0
Al               1.4999999965        0.4999999988        0.7071067673    0   0   0
Al               1.4999999965        1.4999999965        0.7071067673    0   0   0
Al               1.4999999965        2.4999999941        0.7071067673    0   0   0
Al               2.4999999941        0.4999999988        0.7071067673    0   0   0
Al               2.4999999941        1.4999999965        0.7071067673    0   0   0
Al               2.4999999941        2.4999999941        0.7071067673    0   0   0
Al               0.0000000000        0.0000000000        1.4411365628    0   0   1
Al               0.0000000000        0.9999999976        1.4411347682    0   0   1
Al               0.0000000000        1.9999999953        1.4411347682    0   0   1
Al               0.9999999976        0.0000000000        1.4411347682    0   0   1
Al               0.9999999976        0.9999999976        1.4411341241    0   0   1
Al               0.9999999976        1.9999999953        1.4411341241    0   0   1
Al               1.9999999953        0.0000000000        1.4411347682    0   0   1
Al               1.9999999953        0.9999999976        1.4411341241    0   0   1
Al               1.9999999953        1.9999999953        1.4411341241    0   0   1
Al               0.4999999988        0.4999999988        2.1370662490    0   0   1
Al               0.4999999988        1.4999999965        2.1370649134    0   0   1
Al               0.4999999988        2.4999999941        2.1370662490    0   0   1
Al               1.4999999965        0.4999999988        2.1370649134    0   0   1
Al               1.4999999965        1.4999999965        2.1370672490    0   0   1
Al               1.4999999965        2.4999999941        2.1370649134    0   0   1
Al               2.4999999941        0.4999999988        2.1370662490    0   0   1
Al               2.4999999941        1.4999999965        2.1370649134    0   0   1
Al               2.4999999941        2.4999999941        2.1370662490    0   0   1



     Writing config-only to output data dir ./tmp/Al.save/ :
     XML data file
     NEW-OLD atomic charge density approx. for the potential

     negative rho (up, down):  4.182E-05 0.000E+00

     total cpu time spent up to now is      227.2 secs

     Self-consistent Calculation

     iteration #  1     ecut=    40.00 Ry     beta= 0.50
     Davidson diagonalization with overlap
     ethr =  1.00E-06,  avg # of iterations = 11.0

     negative rho (up, down):  1.409E-05 0.000E+00

     total cpu time spent up to now is      232.4 secs

     total energy              =   -1420.82355713 Ry
     estimated scf accuracy    <       0.00990804 Ry

     iteration #  2     ecut=    40.00 Ry     beta= 0.50
     Davidson diagonalization with overlap
     ethr =  9.17E-06,  avg # of iterations =  1.0

     negative rho (up, down):  1.002E-06 0.000E+00

     total cpu time spent up to now is      236.0 secs

     total energy              =   -1420.82314031 Ry
     estimated scf accuracy    <       0.00280837 Ry

     iteration #  3     ecut=    40.00 Ry     beta= 0.50
     Davidson diagonalization with overlap
     ethr =  2.60E-06,  avg # of iterations =  6.0

     negative rho (up, down):  5.648E-07 0.000E+00

     total cpu time spent up to now is      240.1 secs

     total energy              =   -1420.82350325 Ry
     estimated scf accuracy    <       0.00052703 Ry

     iteration #  4     ecut=    40.00 Ry     beta= 0.50
     Davidson diagonalization with overlap
     ethr =  4.88E-07,  avg # of iterations =  4.0

     negative rho (up, down):  2.364E-07 0.000E+00

     total cpu time spent up to now is      244.0 secs

     total energy              =   -1420.82351692 Ry
     estimated scf accuracy    <       0.00011687 Ry

     iteration #  5     ecut=    40.00 Ry     beta= 0.50
     Davidson diagonalization with overlap
     ethr =  1.08E-07,  avg # of iterations =  8.0

     negative rho (up, down):  2.095E-07 0.000E+00

     total cpu time spent up to now is      248.4 secs

     total energy              =   -1420.82353041 Ry
     estimated scf accuracy    <       0.00028180 Ry

     iteration #  6     ecut=    40.00 Ry     beta= 0.50
     Davidson diagonalization with overlap
     ethr =  1.08E-07,  avg # of iterations =  2.0

     negative rho (up, down):  3.844E-07 0.000E+00

     total cpu time spent up to now is      252.2 secs

     total energy              =   -1420.82353373 Ry
     estimated scf accuracy    <       0.00004184 Ry

     iteration #  7     ecut=    40.00 Ry     beta= 0.50
     Davidson diagonalization with overlap
     ethr =  3.87E-08,  avg # of iterations =  8.0

     negative rho (up, down):  1.529E-06 0.000E+00

     total cpu time spent up to now is      256.5 secs

     total energy              =   -1420.82354079 Ry
     estimated scf accuracy    <       0.00001348 Ry

     iteration #  8     ecut=    40.00 Ry     beta= 0.50
     Davidson diagonalization with overlap
     ethr =  1.25E-08,  avg # of iterations =  1.0

     negative rho (up, down):  2.917E-06 0.000E+00

     total cpu time spent up to now is      260.2 secs

     total energy              =   -1420.82354061 Ry
     estimated scf accuracy    <       0.00001295 Ry

     iteration #  9     ecut=    40.00 Ry     beta= 0.50
     Davidson diagonalization with overlap
     ethr =  1.20E-08,  avg # of iterations =  1.0

     negative rho (up, down):  2.403E-05 0.000E+00

     total cpu time spent up to now is      264.0 secs

     total energy              =   -1420.82354027 Ry
     estimated scf accuracy    <       0.00000644 Ry

     iteration # 10     ecut=    40.00 Ry     beta= 0.50
     Davidson diagonalization with overlap
     ethr =  5.96E-09,  avg # of iterations =  6.0

     negative rho (up, down):  2.437E-05 0.000E+00

     total cpu time spent up to now is      267.9 secs

     total energy              =   -1420.82354079 Ry
     estimated scf accuracy    <       0.00000007 Ry

     iteration # 11     ecut=    40.00 Ry     beta= 0.50
     Davidson diagonalization with overlap
     ethr =  6.44E-11,  avg # of iterations = 11.0

     negative rho (up, down):  2.360E-05 0.000E+00

     total cpu time spent up to now is      272.7 secs

     total energy              =   -1420.82354087 Ry
     estimated scf accuracy    <       0.00000008 Ry

     iteration # 12     ecut=    40.00 Ry     beta= 0.50
     Davidson diagonalization with overlap
     ethr =  6.44E-11,  avg # of iterations =  7.0

     negative rho (up, down):  2.800E-05 0.000E+00

     total cpu time spent up to now is      276.9 secs

     total energy              =   -1420.82354080 Ry
     estimated scf accuracy    <       0.00000040 Ry

     iteration # 13     ecut=    40.00 Ry     beta= 0.50
     Davidson diagonalization with overlap
     ethr =  6.44E-11,  avg # of iterations =  7.0

     negative rho (up, down):  3.651E-05 0.000E+00

     total cpu time spent up to now is      280.3 secs

     End of self-consistent calculation

          k = 0.0000 0.0000 0.0000 ( 24166 PWs)   bands (ev):

   -10.3787  -9.1431  -8.3788  -8.3788  -8.3788  -8.3788  -7.1590  -7.1590
    -7.1590  -7.1590  -6.9924  -6.4085  -6.4085  -6.4085  -6.4085  -5.2051
    -5.2051  -5.2051  -5.2051  -5.0296  -5.0296  -5.0296  -5.0296  -4.1741
    -3.0966  -3.0966  -3.0966  -3.0966  -2.5505  -2.5505  -2.5505  -2.5505
    -2.2269  -2.2269  -2.2269  -2.2269  -1.8723  -1.3801  -1.3801  -1.3801
    -1.3801  -1.2555  -1.2555  -1.2555  -1.2555  -0.3661  -0.3661  -0.3661
    -0.3661  -0.1478  -0.1478  -0.1478  -0.1478  -0.0021  -0.0021  -0.0021
    -0.0021   0.1988   0.1988   0.1988   0.1988   0.7214   0.7214   0.7214
     0.7214

     the Fermi energy is     0.0402 ev

!    total energy              =   -1420.82354087 Ry
     total all-electron energy =    -17481.963678 Ry
     estimated scf accuracy    <       0.00000001 Ry
     smearing contrib. (-TS)   =      -0.13926304 Ry
     internal energy E=F+TS    =   -1420.68427783 Ry

     The total energy is F=E-TS. E is the sum of the following terms:
     one-electron contribution =   -1550.85464406 Ry
     hartree contribution      =     802.34114075 Ry
     xc contribution           =     -91.23180239 Ry
     ewald contribution        =     667.44069079 Ry
     one-center paw contrib.   =   -1248.37966292 Ry

     convergence has been achieved in  13 iterations

     negative rho (up, down):  3.651E-05 0.000E+00

     Forces acting on atoms (cartesian axes, Ry/au):

     atom    1 type  1   force =     0.00000000    0.00000000    0.01662255
     atom    2 type  1   force =     0.00000000   -0.00000011    0.01662238
     atom    3 type  1   force =    -0.00000000    0.00000011    0.01662238
     atom    4 type  1   force =    -0.00000011    0.00000000    0.01662238
     atom    5 type  1   force =    -0.00000006   -0.00000006    0.01662245
     atom    6 type  1   force =    -0.00000006    0.00000006    0.01662245
     atom    7 type  1   force =     0.00000011    0.00000000    0.01662238
     atom    8 type  1   force =     0.00000006   -0.00000006    0.01662245
     atom    9 type  1   force =     0.00000006    0.00000006    0.01662245
     atom   10 type  1   force =    -0.00000032   -0.00000032   -0.00784691
     atom   11 type  1   force =    -0.00000019   -0.00000000   -0.00784680
     atom   12 type  1   force =    -0.00000032    0.00000032   -0.00784691
     atom   13 type  1   force =     0.00000000   -0.00000019   -0.00784680
     atom   14 type  1   force =     0.00000000    0.00000000   -0.00784673
     atom   15 type  1   force =    -0.00000000    0.00000019   -0.00784680
     atom   16 type  1   force =     0.00000032   -0.00000032   -0.00784691
     atom   17 type  1   force =     0.00000019    0.00000000   -0.00784680
     atom   18 type  1   force =     0.00000032    0.00000032   -0.00784691
     atom   19 type  1   force =     0.00000000    0.00000000    0.00582264
     atom   20 type  1   force =     0.00000000   -0.00000003    0.00582337
     atom   21 type  1   force =     0.00000000    0.00000003    0.00582337
     atom   22 type  1   force =    -0.00000003    0.00000000    0.00582337
     atom   23 type  1   force =     0.00000019    0.00000019    0.00582380
     atom   24 type  1   force =     0.00000019   -0.00000019    0.00582380
     atom   25 type  1   force =     0.00000003    0.00000000    0.00582337
     atom   26 type  1   force =    -0.00000019    0.00000019    0.00582380
     atom   27 type  1   force =    -0.00000019   -0.00000019    0.00582380
     atom   28 type  1   force =     0.00000013    0.00000013   -0.01459902
     atom   29 type  1   force =     0.00000017   -0.00000000   -0.01459899
     atom   30 type  1   force =     0.00000013   -0.00000013   -0.01459902
     atom   31 type  1   force =     0.00000000    0.00000017   -0.01459899
     atom   32 type  1   force =     0.00000000    0.00000000   -0.01459956
     atom   33 type  1   force =     0.00000000   -0.00000017   -0.01459899
     atom   34 type  1   force =    -0.00000013    0.00000013   -0.01459902
     atom   35 type  1   force =    -0.00000017    0.00000000   -0.01459899
     atom   36 type  1   force =    -0.00000013   -0.00000013   -0.01459902

     Total force =     0.047153     Total SCF correction =     0.000121
     Energy error            =      7.0E-03 Ry
     Gradient error          =      1.5E-02 Ry/Bohr

     number of scf cycles    =   5
     number of bfgs steps    =   4

     energy             old  =   -1420.8165634965 Ry
     energy             new  =   -1420.8235408727 Ry

     CASE: energy            _new < energy            _old

     new trust radius        =       0.0629283936 bohr
     new conv_thr            =       0.0000000146 Ry


ATOMIC_POSITIONS (alat)
Al               0.0000000000        0.0000000000        0.0000000000    0   0   0
Al               0.0000000000        0.9999999974        0.0000000000    0   0   0
Al               0.0000000000        1.9999999949        0.0000000000    0   0   0
Al               0.9999999974        0.0000000000        0.0000000000    0   0   0
Al               0.9999999974        0.9999999974        0.0000000000    0   0   0
Al               0.9999999974        1.9999999949        0.0000000000    0   0   0
Al               1.9999999949        0.0000000000        0.0000000000    0   0   0
Al               1.9999999949        0.9999999974        0.0000000000    0   0   0
Al               1.9999999949        1.9999999949        0.0000000000    0   0   0
Al               0.4999999987        0.4999999987        0.7071067672    0   0   0
Al               0.4999999987        1.4999999962        0.7071067672    0   0   0
Al               0.4999999987        2.4999999936        0.7071067672    0   0   0
Al               1.4999999962        0.4999999987        0.7071067672    0   0   0
Al               1.4999999962        1.4999999962        0.7071067672    0   0   0
Al               1.4999999962        2.4999999936        0.7071067672    0   0   0
Al               2.4999999936        0.4999999987        0.7071067672    0   0   0
Al               2.4999999936        1.4999999962        0.7071067672    0   0   0
Al               2.4999999936        2.4999999936        0.7071067672    0   0   0
Al               0.0000000000        0.0000000000        1.4450964602    0   0   1
Al               0.0000000000        0.9999999974        1.4450952966    0   0   1
Al               0.0000000000        1.9999999949        1.4450952966    0   0   1
Al               0.9999999974        0.0000000000        1.4450952966    0   0   1
Al               0.9999999974        0.9999999974        1.4450953187    0   0   1
Al               0.9999999974        1.9999999949        1.4450953187    0   0   1
Al               1.9999999949        0.0000000000        1.4450952966    0   0   1
Al               1.9999999949        0.9999999974        1.4450953187    0   0   1
Al               1.9999999949        1.9999999949        1.4450953187    0   0   1
Al               0.4999999987        0.4999999987        2.1254011879    0   0   1
Al               0.4999999987        1.4999999962        2.1254000786    0   0   1
Al               0.4999999987        2.4999999936        2.1254011879    0   0   1
Al               1.4999999962        0.4999999987        2.1254000786    0   0   1
Al               1.4999999962        1.4999999962        2.1254017716    0   0   1
Al               1.4999999962        2.4999999936        2.1254000786    0   0   1
Al               2.4999999936        0.4999999987        2.1254011879    0   0   1
Al               2.4999999936        1.4999999962        2.1254000786    0   0   1
Al               2.4999999936        2.4999999936        2.1254011879    0   0   1



     Writing config-only to output data dir ./tmp/Al.save/ :
     XML data file
     NEW-OLD atomic charge density approx. for the potential

     negative rho (up, down):  5.229E-05 0.000E+00

     total cpu time spent up to now is      284.8 secs

     Self-consistent Calculation

     iteration #  1     ecut=    40.00 Ry     beta= 0.50
     Davidson diagonalization with overlap
     ethr =  1.00E-06,  avg # of iterations = 12.0

     negative rho (up, down):  7.350E-06 0.000E+00

     total cpu time spent up to now is      289.9 secs

     total energy              =   -1420.83222783 Ry
     estimated scf accuracy    <       0.01707345 Ry

     iteration #  2     ecut=    40.00 Ry     beta= 0.50
     Davidson diagonalization with overlap
     ethr =  1.58E-05,  avg # of iterations =  1.0

     negative rho (up, down):  1.145E-07 0.000E+00

     total cpu time spent up to now is      293.8 secs

     total energy              =   -1420.83159385 Ry
     estimated scf accuracy    <       0.00460196 Ry

     iteration #  3     ecut=    40.00 Ry     beta= 0.50
     Davidson diagonalization with overlap
     ethr =  4.26E-06,  avg # of iterations =  7.0

     negative rho (up, down):  1.073E-07 0.000E+00

     total cpu time spent up to now is      297.8 secs

     total energy              =   -1420.83219560 Ry
     estimated scf accuracy    <       0.00056628 Ry

     iteration #  4     ecut=    40.00 Ry     beta= 0.50
     Davidson diagonalization with overlap
     ethr =  5.24E-07,  avg # of iterations =  5.0

     negative rho (up, down):  6.157E-08 0.000E+00

     total cpu time spent up to now is      301.9 secs

     total energy              =   -1420.83227145 Ry
     estimated scf accuracy    <       0.00083747 Ry

     iteration #  5     ecut=    40.00 Ry     beta= 0.50
     Davidson diagonalization with overlap
     ethr =  5.24E-07,  avg # of iterations =  1.0

     negative rho (up, down):  2.560E-06 0.000E+00

     total cpu time spent up to now is      305.6 secs

     total energy              =   -1420.83224271 Ry
     estimated scf accuracy    <       0.00113159 Ry

     iteration #  6     ecut=    40.00 Ry     beta= 0.50
     Davidson diagonalization with overlap
     ethr =  5.24E-07,  avg # of iterations =  1.0

     negative rho (up, down):  1.539E-05 0.000E+00

     total cpu time spent up to now is      309.4 secs

     total energy              =   -1420.83214255 Ry
     estimated scf accuracy    <       0.00053250 Ry

     iteration #  7     ecut=    40.00 Ry     beta= 0.50
     Davidson diagonalization with overlap
     ethr =  4.93E-07,  avg # of iterations =  8.0

     negative rho (up, down):  6.662E-07 0.000E+00

     total cpu time spent up to now is      313.6 secs

     total energy              =   -1420.83224599 Ry
     estimated scf accuracy    <       0.00173492 Ry

     iteration #  8     ecut=    40.00 Ry     beta= 0.50
     Davidson diagonalization with overlap
     ethr =  4.93E-07,  avg # of iterations =  1.0

     negative rho (up, down):  4.128E-08 0.000E+00

     total cpu time spent up to now is      317.2 secs

     total energy              =   -1420.83219851 Ry
     estimated scf accuracy    <       0.00088840 Ry

     iteration #  9     ecut=    40.00 Ry     beta= 0.50
     Davidson diagonalization with overlap
     ethr =  4.93E-07,  avg # of iterations =  6.0

     negative rho (up, down):  6.852E-08 0.000E+00

     total cpu time spent up to now is      321.1 secs

     total energy              =   -1420.83222581 Ry
     estimated scf accuracy    <       0.00012886 Ry

     iteration # 10     ecut=    40.00 Ry     beta= 0.50
     Davidson diagonalization with overlap
     ethr =  1.19E-07,  avg # of iterations =  6.0

     negative rho (up, down):  1.380E-07 0.000E+00

     total cpu time spent up to now is      325.2 secs

     total energy              =   -1420.83223151 Ry
     estimated scf accuracy    <       0.00013443 Ry

     iteration # 11     ecut=    40.00 Ry     beta= 0.50
     Davidson diagonalization with overlap
     ethr =  1.19E-07,  avg # of iterations =  1.0

     negative rho (up, down):  9.541E-07 0.000E+00

     total cpu time spent up to now is      328.9 secs

     total energy              =   -1420.83222657 Ry
     estimated scf accuracy    <       0.00015346 Ry

     iteration # 12     ecut=    40.00 Ry     beta= 0.50
     Davidson diagonalization with overlap
     ethr =  1.19E-07,  avg # of iterations =  1.0

     negative rho (up, down):  2.255E-06 0.000E+00

     total cpu time spent up to now is      332.8 secs

     total energy              =   -1420.83222305 Ry
     estimated scf accuracy    <       0.00007330 Ry

     iteration # 13     ecut=    40.00 Ry     beta= 0.50
     Davidson diagonalization with overlap
     ethr =  6.79E-08,  avg # of iterations =  1.0

     negative rho (up, down):  5.242E-06 0.000E+00

     total cpu time spent up to now is      336.5 secs

     total energy              =   -1420.83222583 Ry
     estimated scf accuracy    <       0.00002161 Ry

     iteration # 14     ecut=    40.00 Ry     beta= 0.50
     Davidson diagonalization with overlap
     ethr =  2.00E-08,  avg # of iterations =  2.0

     negative rho (up, down):  7.407E-06 0.000E+00

     total cpu time spent up to now is      340.4 secs

     total energy              =   -1420.83222536 Ry
     estimated scf accuracy    <       0.00002624 Ry

     iteration # 15     ecut=    40.00 Ry     beta= 0.50
     Davidson diagonalization with overlap
     ethr =  2.00E-08,  avg # of iterations =  2.0

     negative rho (up, down):  1.687E-05 0.000E+00

     total cpu time spent up to now is      344.2 secs

     total energy              =   -1420.83222370 Ry
     estimated scf accuracy    <       0.00001481 Ry

     iteration # 16     ecut=    40.00 Ry     beta= 0.50
     Davidson diagonalization with overlap
     ethr =  1.37E-08,  avg # of iterations =  6.0

     negative rho (up, down):  1.467E-05 0.000E+00

     total cpu time spent up to now is      348.5 secs

     total energy              =   -1420.83222551 Ry
     estimated scf accuracy    <       0.00000368 Ry

     iteration # 17     ecut=    40.00 Ry     beta= 0.50
     Davidson diagonalization with overlap
     ethr =  3.40E-09,  avg # of iterations =  5.0

     negative rho (up, down):  1.941E-05 0.000E+00

     total cpu time spent up to now is      352.4 secs

     total energy              =   -1420.83222593 Ry
[...]
     atom   35 type  1   force =     0.00000738    0.00000000   -0.00042417
     atom   36 type  1   force =     0.00000342    0.00000342   -0.00041339

     Total force =     0.001740     Total SCF correction =     0.000039
     Energy error            =      2.1E-03 Ry
     Gradient error          =      4.2E-04 Ry/Bohr

     number of scf cycles    =  14
     number of bfgs steps    =  12

     energy             old  =   -1420.9216652114 Ry
     energy             new  =   -1420.9237876248 Ry

     CASE: energy            _new < energy            _old

     new trust radius        =       0.0237709861 bohr
     new conv_thr            =       0.0000000010 Ry


ATOMIC_POSITIONS (alat)
Al               0.0000000000        0.0000000000        0.0000000000    0   0   0
Al               0.0000000000        0.9999999684        0.0000000000    0   0   0
Al               0.0000000000        1.9999999370        0.0000000000    0   0   0
Al               0.9999999684        0.0000000000        0.0000000000    0   0   0
Al               0.9999999684        0.9999999684        0.0000000000    0   0   0
Al               0.9999999684        1.9999999370        0.0000000000    0   0   0
Al               1.9999999370        0.0000000000        0.0000000000    0   0   0
Al               1.9999999370        0.9999999684        0.0000000000    0   0   0
Al               1.9999999370        1.9999999370        0.0000000000    0   0   0
Al               0.4999999842        0.4999999842        0.7071067467    0   0   0
Al               0.4999999842        1.4999999528        0.7071067467    0   0   0
Al               0.4999999842        2.4999999212        0.7071067467    0   0   0
Al               1.4999999528        0.4999999842        0.7071067467    0   0   0
Al               1.4999999528        1.4999999528        0.7071067467    0   0   0
Al               1.4999999528        2.4999999212        0.7071067467    0   0   0
Al               2.4999999212        0.4999999842        0.7071067467    0   0   0
Al               2.4999999212        1.4999999528        0.7071067467    0   0   0
Al               2.4999999212        2.4999999212        0.7071067467    0   0   0
Al               0.0000000000        0.0000000000        1.3158925938    0   0   1
Al               0.0000000000        0.9999999684        1.3158934815    0   0   1
Al               0.0000000000        1.9999999370        1.3158934815    0   0   1
Al               0.9999999684        0.0000000000        1.3158934815    0   0   1
Al               0.9999999684        0.9999999684        1.3159145111    0   0   1
Al               0.9999999684        1.9999999370        1.3159145111    0   0   1
Al               1.9999999370        0.0000000000        1.3158934815    0   0   1
Al               1.9999999370        0.9999999684        1.3159145111    0   0   1
Al               1.9999999370        1.9999999370        1.3159145111    0   0   1
Al               0.4999999842        0.4999999842        1.9018308466    0   0   1
Al               0.4999999842        1.4999999528        1.9018592451    0   0   1
Al               0.4999999842        2.4999999212        1.9018308466    0   0   1
Al               1.4999999528        0.4999999842        1.9018592451    0   0   1
Al               1.4999999528        1.4999999528        1.9018135751    0   0   1
Al               1.4999999528        2.4999999212        1.9018592451    0   0   1
Al               2.4999999212        0.4999999842        1.9018308466    0   0   1
Al               2.4999999212        1.4999999528        1.9018592451    0   0   1
Al               2.4999999212        2.4999999212        1.9018308466    0   0   1



     Writing config-only to output data dir ./tmp/Al.save/ :
     XML data file
     NEW-OLD atomic charge density approx. for the potential

     negative rho (up, down):  4.454E-05 0.000E+00

     total cpu time spent up to now is     1120.0 secs

     Self-consistent Calculation

     iteration #  1     ecut=    40.00 Ry     beta= 0.50
     Davidson diagonalization with overlap
     ethr =  1.00E-06,  avg # of iterations =  6.0

     negative rho (up, down):  2.335E-05 0.000E+00

     total cpu time spent up to now is     1124.7 secs

     total energy              =   -1420.92382396 Ry
     estimated scf accuracy    <       0.00154595 Ry

     iteration #  2     ecut=    40.00 Ry     beta= 0.50
     Davidson diagonalization with overlap
     ethr =  1.43E-06,  avg # of iterations =  1.0

     negative rho (up, down):  8.897E-06 0.000E+00

     total cpu time spent up to now is     1128.4 secs

     total energy              =   -1420.92375597 Ry
     estimated scf accuracy    <       0.00043451 Ry

     iteration #  3     ecut=    40.00 Ry     beta= 0.50
     Davidson diagonalization with overlap
     ethr =  4.02E-07,  avg # of iterations =  5.0

     negative rho (up, down):  1.296E-05 0.000E+00

     total cpu time spent up to now is     1132.3 secs

     total energy              =   -1420.92383127 Ry
     estimated scf accuracy    <       0.00013132 Ry

     iteration #  4     ecut=    40.00 Ry     beta= 0.50
     Davidson diagonalization with overlap
     ethr =  1.22E-07,  avg # of iterations =  2.0

     negative rho (up, down):  1.668E-05 0.000E+00

     total cpu time spent up to now is     1136.0 secs

     total energy              =   -1420.92384506 Ry
     estimated scf accuracy    <       0.00000333 Ry

     iteration #  5     ecut=    40.00 Ry     beta= 0.50
     Davidson diagonalization with overlap
     ethr =  3.08E-09,  avg # of iterations =  6.0

     negative rho (up, down):  1.533E-05 0.000E+00

     total cpu time spent up to now is     1140.3 secs

     total energy              =   -1420.92384609 Ry
     estimated scf accuracy    <       0.00002937 Ry

     iteration #  6     ecut=    40.00 Ry     beta= 0.50
     Davidson diagonalization with overlap
     ethr =  3.08E-09,  avg # of iterations =  4.0

     negative rho (up, down):  1.910E-05 0.000E+00

     total cpu time spent up to now is     1144.4 secs

     total energy              =   -1420.92384740 Ry
     estimated scf accuracy    <       0.00000234 Ry

     iteration #  7     ecut=    40.00 Ry     beta= 0.50
     Davidson diagonalization with overlap
     ethr =  2.17E-09,  avg # of iterations =  2.0

     negative rho (up, down):  2.240E-05 0.000E+00

     total cpu time spent up to now is     1148.3 secs

     total energy              =   -1420.92384761 Ry
     estimated scf accuracy    <       0.00000026 Ry

     iteration #  8     ecut=    40.00 Ry     beta= 0.50
     Davidson diagonalization with overlap
     ethr =  2.40E-10,  avg # of iterations =  9.0

     negative rho (up, down):  2.555E-05 0.000E+00

     total cpu time spent up to now is     1152.7 secs

     total energy              =   -1420.92384771 Ry
     estimated scf accuracy    <       0.00000006 Ry

     iteration #  9     ecut=    40.00 Ry     beta= 0.50
     Davidson diagonalization with overlap
     ethr =  5.70E-11,  avg # of iterations =  9.0

     negative rho (up, down):  3.742E-05 0.000E+00

     total cpu time spent up to now is     1157.1 secs

     total energy              =   -1420.92384768 Ry
     estimated scf accuracy    <       0.00000035 Ry

     iteration # 10     ecut=    40.00 Ry     beta= 0.50
     Davidson diagonalization with overlap
     ethr =  5.70E-11,  avg # of iterations =  7.0

     negative rho (up, down):  3.919E-05 0.000E+00

     total cpu time spent up to now is     1161.4 secs

     total energy              =   -1420.92384773 Ry
     estimated scf accuracy    <       0.00000007 Ry

     iteration # 11     ecut=    40.00 Ry     beta= 0.50
     Davidson diagonalization with overlap
     ethr =  5.70E-11,  avg # of iterations =  4.0

     negative rho (up, down):  4.001E-05 0.000E+00

     total cpu time spent up to now is     1165.4 secs

     total energy              =   -1420.92384772 Ry
     estimated scf accuracy    <       0.00000018 Ry

     iteration # 12     ecut=    40.00 Ry     beta= 0.50
     Davidson diagonalization with overlap
     ethr =  5.70E-11,  avg # of iterations =  1.0

     negative rho (up, down):  4.243E-05 0.000E+00

     total cpu time spent up to now is     1169.1 secs

     total energy              =   -1420.92384769 Ry
     estimated scf accuracy    <       0.00000014 Ry

     iteration # 13     ecut=    40.00 Ry     beta= 0.50
     Davidson diagonalization with overlap
     ethr =  5.70E-11,  avg # of iterations =  4.0

     negative rho (up, down):  4.279E-05 0.000E+00

     total cpu time spent up to now is     1173.3 secs

     total energy              =   -1420.92384771 Ry
     estimated scf accuracy    <       0.00000002 Ry

     iteration # 14     ecut=    40.00 Ry     beta= 0.50
     Davidson diagonalization with overlap
     ethr =  1.71E-11,  avg # of iterations =  2.0

     negative rho (up, down):  4.299E-05 0.000E+00

     total cpu time spent up to now is     1177.0 secs

     total energy              =   -1420.92384771 Ry
     estimated scf accuracy    <          7.3E-09 Ry

     iteration # 15     ecut=    40.00 Ry     beta= 0.50
     Davidson diagonalization with overlap
     ethr =  6.73E-12,  avg # of iterations =  2.0

     negative rho (up, down):  4.332E-05 0.000E+00

     total cpu time spent up to now is     1180.9 secs

     total energy              =   -1420.92384771 Ry
     estimated scf accuracy    <          1.3E-09 Ry

     iteration # 16     ecut=    40.00 Ry     beta= 0.50
     Davidson diagonalization with overlap
     ethr =  1.19E-12,  avg # of iterations =  5.0

     negative rho (up, down):  4.334E-05 0.000E+00

     total cpu time spent up to now is     1184.2 secs

     End of self-consistent calculation

          k = 0.0000 0.0000 0.0000 ( 24166 PWs)   bands (ev):

   -10.8973  -9.1104  -8.9040  -8.9040  -8.9040  -8.9039  -7.1331  -7.1331
    -7.1331  -7.1331  -6.9460  -6.9460  -6.9460  -6.9460  -6.7881  -5.1890
    -5.1890  -5.1890  -5.1889  -4.8377  -4.8377  -4.8377  -4.8377  -3.6326
    -3.1225  -3.1225  -3.1225  -3.1225  -2.9240  -2.9240  -2.9240  -2.9240
    -1.8776  -1.8776  -1.8775  -1.8775  -1.7026  -1.7025  -1.7025  -1.7025
    -1.3702  -1.3702  -1.3702  -1.3702  -1.1985  -0.5089  -0.5089  -0.5089
    -0.5089  -0.1684  -0.1684  -0.1683  -0.1683   0.3370   0.3370   0.3370
     0.3370   0.6537   0.6538   0.6538   0.6538   0.9339   0.9339   0.9339
     0.9339

     the Fermi energy is     0.2001 ev

!    total energy              =   -1420.92384771 Ry
     total all-electron energy =    -17482.063985 Ry
     estimated scf accuracy    <          2.2E-10 Ry
     smearing contrib. (-TS)   =      -0.05220500 Ry
     internal energy E=F+TS    =   -1420.87164270 Ry

     The total energy is F=E-TS. E is the sum of the following terms:
     one-electron contribution =   -1752.99099658 Ry
     hartree contribution      =     904.34374269 Ry
     xc contribution           =     -93.02476148 Ry
     ewald contribution        =     769.51023393 Ry
     one-center paw contrib.   =   -1248.70986126 Ry

     convergence has been achieved in  16 iterations

     negative rho (up, down):  4.334E-05 0.000E+00

     Forces acting on atoms (cartesian axes, Ry/au):

     atom    1 type  1   force =     0.00000000    0.00000000    0.03423841
     atom    2 type  1   force =     0.00000000    0.00000031    0.03423734
     atom    3 type  1   force =     0.00000000   -0.00000031    0.03423734
     atom    4 type  1   force =     0.00000031    0.00000000    0.03423734
     atom    5 type  1   force =     0.00000044    0.00000044    0.03423798
     atom    6 type  1   force =     0.00000044   -0.00000044    0.03423798
     atom    7 type  1   force =    -0.00000031    0.00000000    0.03423734
     atom    8 type  1   force =    -0.00000044    0.00000044    0.03423798
     atom    9 type  1   force =    -0.00000044   -0.00000044    0.03423798
     atom   10 type  1   force =     0.00000286    0.00000286   -0.03440168
     atom   11 type  1   force =     0.00000474   -0.00000000   -0.03439939
     atom   12 type  1   force =     0.00000286   -0.00000286   -0.03440168
     atom   13 type  1   force =     0.00000000    0.00000474   -0.03439939
     atom   14 type  1   force =     0.00000000    0.00000000   -0.03439640
     atom   15 type  1   force =    -0.00000000   -0.00000474   -0.03439939
     atom   16 type  1   force =    -0.00000286    0.00000286   -0.03440168
     atom   17 type  1   force =    -0.00000474    0.00000000   -0.03439939
     atom   18 type  1   force =    -0.00000286   -0.00000286   -0.03440168
     atom   19 type  1   force =     0.00000000    0.00000000    0.00008596
     atom   20 type  1   force =    -0.00000000    0.00000769    0.00009094
     atom   21 type  1   force =     0.00000000   -0.00000769    0.00009094
     atom   22 type  1   force =     0.00000769    0.00000000    0.00009094
     atom   23 type  1   force =    -0.00000271   -0.00000271    0.00006809
     atom   24 type  1   force =    -0.00000271    0.00000271    0.00006809
     atom   25 type  1   force =    -0.00000769    0.00000000    0.00009094
     atom   26 type  1   force =     0.00000271   -0.00000271    0.00006809
     atom   27 type  1   force =     0.00000271    0.00000271    0.00006809
     atom   28 type  1   force =    -0.00000281   -0.00000281    0.00008498
     atom   29 type  1   force =    -0.00000562    0.00000000    0.00007436
     atom   30 type  1   force =    -0.00000281    0.00000281    0.00008498
     atom   31 type  1   force =     0.00000000   -0.00000562    0.00007436
     atom   32 type  1   force =     0.00000000    0.00000000    0.00010162
     atom   33 type  1   force =     0.00000000    0.00000562    0.00007436
     atom   34 type  1   force =     0.00000281   -0.00000281    0.00008498
     atom   35 type  1   force =     0.00000562    0.00000000    0.00007436
     atom   36 type  1   force =     0.00000281    0.00000281    0.00008498

     Total force =     0.000347     Total SCF correction =     0.000013
     Energy error            =      6.0E-05 Ry
     Gradient error          =      1.0E-04 Ry/Bohr

     bfgs converged in  15 scf cycles and  13 bfgs steps
     (criteria: energy <  1.0E-04 Ry, force <  1.0E-03 Ry/Bohr)

     End of BFGS Geometry Optimization

     Final energy             =   -1420.9238477073 Ry

     File ./tmp/Al.bfgs deleted, as requested
Begin final coordinates

ATOMIC_POSITIONS (alat)
Al               0.0000000000        0.0000000000        0.0000000000    0   0   0
Al               0.0000000000        0.9999999684        0.0000000000    0   0   0
Al               0.0000000000        1.9999999370        0.0000000000    0   0   0
Al               0.9999999684        0.0000000000        0.0000000000    0   0   0
Al               0.9999999684        0.9999999684        0.0000000000    0   0   0
Al               0.9999999684        1.9999999370        0.0000000000    0   0   0
Al               1.9999999370        0.0000000000        0.0000000000    0   0   0
Al               1.9999999370        0.9999999684        0.0000000000    0   0   0
Al               1.9999999370        1.9999999370        0.0000000000    0   0   0
Al               0.4999999842        0.4999999842        0.7071067467    0   0   0
Al               0.4999999842        1.4999999528        0.7071067467    0   0   0
Al               0.4999999842        2.4999999212        0.7071067467    0   0   0
Al               1.4999999528        0.4999999842        0.7071067467    0   0   0
Al               1.4999999528        1.4999999528        0.7071067467    0   0   0
Al               1.4999999528        2.4999999212        0.7071067467    0   0   0
Al               2.4999999212        0.4999999842        0.7071067467    0   0   0
Al               2.4999999212        1.4999999528        0.7071067467    0   0   0
Al               2.4999999212        2.4999999212        0.7071067467    0   0   0
Al               0.0000000000        0.0000000000        1.3158925938    0   0   1
Al               0.0000000000        0.9999999684        1.3158934815    0   0   1
Al               0.0000000000        1.9999999370        1.3158934815    0   0   1
Al               0.9999999684        0.0000000000        1.3158934815    0   0   1
Al               0.9999999684        0.9999999684        1.3159145111    0   0   1
Al               0.9999999684        1.9999999370        1.3159145111    0   0   1
Al               1.9999999370        0.0000000000        1.3158934815    0   0   1
Al               1.9999999370        0.9999999684        1.3159145111    0   0   1
Al               1.9999999370        1.9999999370        1.3159145111    0   0   1
Al               0.4999999842        0.4999999842        1.9018308466    0   0   1
Al               0.4999999842        1.4999999528        1.9018592451    0   0   1
Al               0.4999999842        2.4999999212        1.9018308466    0   0   1
Al               1.4999999528        0.4999999842        1.9018592451    0   0   1
Al               1.4999999528        1.4999999528        1.9018135751    0   0   1
Al               1.4999999528        2.4999999212        1.9018592451    0   0   1
Al               2.4999999212        0.4999999842        1.9018308466    0   0   1
Al               2.4999999212        1.4999999528        1.9018592451    0   0   1
Al               2.4999999212        2.4999999212        1.9018308466    0   0   1
End final coordinates



     Writing all to output data dir ./tmp/Al.save/ :
     XML data file, charge density, pseudopotentials, collected wavefunctions

     init_run     :      2.29s CPU      2.49s WALL (       1 calls)
     electrons    :   1019.50s CPU   1122.03s WALL (      15 calls)
     update_pot   :     14.32s CPU     14.70s WALL (      14 calls)
     forces       :     23.22s CPU     26.32s WALL (      15 calls)

     Called by init_run:
     wfcinit      :      0.51s CPU      0.53s WALL (       1 calls)
     potinit      :      1.00s CPU      1.07s WALL (       1 calls)
     hinit0       :      0.16s CPU      0.19s WALL (       1 calls)

     Called by electrons:
     c_bands      :    248.77s CPU    255.88s WALL (     287 calls)
     sum_band     :    181.22s CPU    220.68s WALL (     287 calls)
     v_of_rho     :     62.45s CPU     69.65s WALL (     302 calls)
     newd         :    135.33s CPU    171.93s WALL (     302 calls)
     PAW_pot      :    237.27s CPU    237.49s WALL (     316 calls)
     mix_rho      :    178.50s CPU    190.63s WALL (     287 calls)

     Called by c_bands:
     init_us_2    :     10.34s CPU     10.52s WALL (     589 calls)
     regterg      :    220.60s CPU    227.52s WALL (     287 calls)

     Called by *egterg:
     rdiaghg      :      4.38s CPU      4.40s WALL (    1527 calls)
     h_psi        :    161.53s CPU    168.14s WALL (    1542 calls)
     s_psi        :     23.60s CPU     23.65s WALL (    1542 calls)
     g_psi        :      0.58s CPU      0.58s WALL (    1254 calls)

     Called by h_psi:
     h_psi:calbec :     25.91s CPU     26.32s WALL (    1542 calls)
     vloc_psi     :    111.01s CPU    117.16s WALL (    1542 calls)
     add_vuspsi   :     23.73s CPU     23.78s WALL (    1542 calls)

     General routines
     calbec       :     35.63s CPU     36.19s WALL (    1903 calls)
     fft          :     47.16s CPU     53.50s WALL (    3441 calls)
     ffts         :     94.35s CPU    102.39s WALL (   31773 calls)
     fftw         :     97.42s CPU    102.74s WALL (   62891 calls)
     interpolate  :      5.13s CPU      5.63s WALL (     302 calls)

     Parallel routines

     PWSCF        :  17m57.88s CPU  19m46.47s WALL


   This run was terminated on:  23:32:15  19May2025            

=------------------------------------------------------------------------------=
   JOB DONE.
=------------------------------------------------------------------------------=
