
     Program PWSCF v.6.7MaX starts on 12May2025 at 20:49:16 

     This program is part of the open-source Quantum ESPRESSO suite
     for quantum simulation of materials; please cite
         "P. Giannozzi et al., J. Phys.:Condens. Matter 21 395502 (2009);
         "P. Giannozzi et al., J. Phys.:Condens. Matter 29 465901 (2017);
          URL http://www.quantum-espresso.org", 
     in publications or presentations arising from this work. More details at
     http://www.quantum-espresso.org/quote

     Parallel version (MPI & OpenMP), running on       4 processor cores
     Number of MPI processes:                 4
     Threads/MPI process:                     1

     MPI processes distributed on     1 nodes
     R & G space division:  proc/nbgrp/npool/nimage =       4
     Waiting for input...
     Reading input from standard input

     Current dimensions of program PWSCF are:
     Max number of different atomic species (ntypx) = 10
     Max number of k-points (npk) =  40000
     Max angular momentum in pseudopotentials (lmaxx) =  3
     file Al.pbe-n-kjpaw_psl.1.0.0.UPF: wavefunction(s)  3S 3P renormalized

     Subspace diagonalization in iterative solution of the eigenvalue problem:
     a serial algorithm will be used

     Found symmetry operation: I + (  0.0000  0.3333  0.0000)
     This is a supercell, fractional translations are disabled
     Message from routine setup:
     using ibrav=0 with symmetry is DISCOURAGED, use correct ibrav instead

     Parallelization info
     --------------------
     sticks:   dense  smooth     PW     G-vecs:    dense   smooth      PW
     Min        1047     416    116               135019    34125    4992
     Max        1048     418    117               135026    34130    4999
     Sum        4189    1669    465               540087   136511   19985



     bravais-lattice index     =            0
     lattice parameter (alat)  =       5.3944  a.u.
     unit-cell volume          =   11302.2493 (a.u.)^3
     number of atoms/cell      =           36
     number of atomic types    =            1
     number of electrons       =       108.00
     number of Kohn-Sham states=           65
     kinetic-energy cutoff     =      20.0000  Ry
     charge density cutoff     =     200.0000  Ry
     scf convergence threshold =      1.0E-07
     mixing beta               =       0.5000
     number of iterations used =            8  local-TF  mixing
     energy convergence thresh.=      1.0E-04
     force convergence thresh. =      1.0E-03
     Exchange-correlation= SLA  PW   PBX  PBC
                           (   1   4   3   4   0   0   0)
     nstep                     =           50


     celldm(1)=   5.394412  celldm(2)=   0.000000  celldm(3)=   0.000000
     celldm(4)=   0.000000  celldm(5)=   0.000000  celldm(6)=   0.000000

     crystal axes: (cart. coord. in units of alat)
               a(1) = (   3.000000   0.000000   0.000000 )  
               a(2) = (   0.000000   3.000000   0.000000 )  
               a(3) = (   0.000000   0.000000   8.000000 )  

     reciprocal axes: (cart. coord. in units 2 pi/alat)
               b(1) = (  0.333333  0.000000  0.000000 )  
               b(2) = (  0.000000  0.333333  0.000000 )  
               b(3) = (  0.000000  0.000000  0.125000 )  


     PseudoPot. # 1 for Al read from file:
     ../../Pseudo/Al.pbe-n-kjpaw_psl.1.0.0.UPF
     MD5 check sum: dd5adf945272da8132fc805c9e56c2d6
     Pseudo is Projector augmented-wave + core cor, Zval =  3.0
     Generated using "atomic" code by A. Dal Corso  v.5.1
     Shape of augmentation charge: PSQ
     Using radial grid of 1135 points,  6 beta functions with: 
                l(1) =   0
                l(2) =   0
                l(3) =   1
                l(4) =   1
                l(5) =   2
                l(6) =   2
     Q(r) pseudized with 0 coefficients 


     atomic species   valence    mass     pseudopotential
        Al             3.00     1.00000     Al( 1.00)

      8 Sym. Ops. (no inversion) found



   Cartesian axes

     site n.     atom                  positions (alat units)
         1           Al  tau(   1) = (   0.0000000   0.0000000   0.0000000  )
         2           Al  tau(   2) = (   0.0000000   1.0000000   0.0000000  )
         3           Al  tau(   3) = (   0.0000000   2.0000000   0.0000000  )
         4           Al  tau(   4) = (   1.0000000   0.0000000   0.0000000  )
         5           Al  tau(   5) = (   1.0000000   1.0000000   0.0000000  )
         6           Al  tau(   6) = (   1.0000000   2.0000000   0.0000000  )
         7           Al  tau(   7) = (   2.0000000   0.0000000   0.0000000  )
         8           Al  tau(   8) = (   2.0000000   1.0000000   0.0000000  )
         9           Al  tau(   9) = (   2.0000000   2.0000000   0.0000000  )
        10           Al  tau(  10) = (   0.5000000   0.5000000   0.7071068  )
        11           Al  tau(  11) = (   0.5000000   1.5000000   0.7071068  )
        12           Al  tau(  12) = (   0.5000000   2.5000000   0.7071068  )
        13           Al  tau(  13) = (   1.5000000   0.5000000   0.7071068  )
        14           Al  tau(  14) = (   1.5000000   1.5000000   0.7071068  )
        15           Al  tau(  15) = (   1.5000000   2.5000000   0.7071068  )
        16           Al  tau(  16) = (   2.5000000   0.5000000   0.7071068  )
        17           Al  tau(  17) = (   2.5000000   1.5000000   0.7071068  )
        18           Al  tau(  18) = (   2.5000000   2.5000000   0.7071068  )
        19           Al  tau(  19) = (   0.0000000   0.0000000   1.4142135  )
        20           Al  tau(  20) = (   0.0000000   1.0000000   1.4142135  )
        21           Al  tau(  21) = (   0.0000000   2.0000000   1.4142135  )
        22           Al  tau(  22) = (   1.0000000   0.0000000   1.4142135  )
        23           Al  tau(  23) = (   1.0000000   1.0000000   1.4142135  )
        24           Al  tau(  24) = (   1.0000000   2.0000000   1.4142135  )
        25           Al  tau(  25) = (   2.0000000   0.0000000   1.4142135  )
        26           Al  tau(  26) = (   2.0000000   1.0000000   1.4142135  )
        27           Al  tau(  27) = (   2.0000000   2.0000000   1.4142135  )
        28           Al  tau(  28) = (   0.5000000   0.5000000   2.1213203  )
        29           Al  tau(  29) = (   0.5000000   1.5000000   2.1213203  )
        30           Al  tau(  30) = (   0.5000000   2.5000000   2.1213203  )
        31           Al  tau(  31) = (   1.5000000   0.5000000   2.1213203  )
        32           Al  tau(  32) = (   1.5000000   1.5000000   2.1213203  )
        33           Al  tau(  33) = (   1.5000000   2.5000000   2.1213203  )
        34           Al  tau(  34) = (   2.5000000   0.5000000   2.1213203  )
        35           Al  tau(  35) = (   2.5000000   1.5000000   2.1213203  )
        36           Al  tau(  36) = (   2.5000000   2.5000000   2.1213203  )

     number of k points=    10  Marzari-Vanderbilt smearing, width (Ry)=  0.0500
                       cart. coord. in units 2pi/alat
        k(    1) = (   0.0208333   0.0208333   0.0000000), wk =   0.1250000
        k(    2) = (   0.0208333   0.0625000   0.0000000), wk =   0.2500000
        k(    3) = (   0.0208333   0.1041667   0.0000000), wk =   0.2500000
        k(    4) = (   0.0208333   0.1458333   0.0000000), wk =   0.2500000
        k(    5) = (   0.0625000   0.0625000   0.0000000), wk =   0.1250000
        k(    6) = (   0.0625000   0.1041667   0.0000000), wk =   0.2500000
        k(    7) = (   0.0625000   0.1458333   0.0000000), wk =   0.2500000
        k(    8) = (   0.1041667   0.1041667   0.0000000), wk =   0.1250000
        k(    9) = (   0.1041667   0.1458333   0.0000000), wk =   0.2500000
        k(   10) = (   0.1458333   0.1458333   0.0000000), wk =   0.1250000

     Dense  grid:   540087 G-vectors     FFT dimensions: (  75,  75, 200)

     Smooth grid:   136511 G-vectors     FFT dimensions: (  48,  48, 125)

     Estimated max dynamical RAM per process >     767.35 MB

     Estimated total dynamical RAM >       3.00 GB

     Initial potential from superposition of free atoms

     starting charge  107.91755, renormalised to  108.00000

     negative rho (up, down):  2.634E-04 0.000E+00
     Starting wfcs are  144 randomized atomic wfcs
     Checking if some PAW data can be deallocated... 

     total cpu time spent up to now is        6.5 secs

     Self-consistent Calculation

     iteration #  1     ecut=    20.00 Ry     beta= 0.50
     Davidson diagonalization with overlap
     ethr =  1.00E-02,  avg # of iterations =  3.7

     total cpu time spent up to now is       18.6 secs

     total energy              =   -1421.44044844 Ry
     estimated scf accuracy    <       1.91632398 Ry

     iteration #  2     ecut=    20.00 Ry     beta= 0.50
     Davidson diagonalization with overlap
     ethr =  1.77E-03,  avg # of iterations =  3.5

     total cpu time spent up to now is       28.7 secs

     total energy              =   -1421.16959187 Ry
     estimated scf accuracy    <       1.31496237 Ry

     iteration #  3     ecut=    20.00 Ry     beta= 0.50
     Davidson diagonalization with overlap
     ethr =  1.22E-03,  avg # of iterations =  3.1

     total cpu time spent up to now is       39.8 secs

     total energy              =   -1421.38999568 Ry
     estimated scf accuracy    <       0.38996454 Ry

     iteration #  4     ecut=    20.00 Ry     beta= 0.50
     Davidson diagonalization with overlap
     ethr =  3.61E-04,  avg # of iterations =  2.0

     total cpu time spent up to now is       49.9 secs

     total energy              =   -1421.46058493 Ry
     estimated scf accuracy    <       0.06756378 Ry

     iteration #  5     ecut=    20.00 Ry     beta= 0.50
     Davidson diagonalization with overlap
     ethr =  6.26E-05,  avg # of iterations =  6.4

     total cpu time spent up to now is       63.8 secs

     total energy              =   -1421.43836457 Ry
     estimated scf accuracy    <       0.12045593 Ry

     iteration #  6     ecut=    20.00 Ry     beta= 0.50
     Davidson diagonalization with overlap
     ethr =  6.26E-05,  avg # of iterations =  2.0

     total cpu time spent up to now is       74.2 secs

     total energy              =   -1421.44723466 Ry
     estimated scf accuracy    <       0.03327277 Ry

     iteration #  7     ecut=    20.00 Ry     beta= 0.50
     Davidson diagonalization with overlap
     ethr =  3.08E-05,  avg # of iterations =  2.5

     negative rho (up, down):  2.049E-02 0.000E+00

     total cpu time spent up to now is       84.1 secs

     total energy              =   -1421.45270113 Ry
     estimated scf accuracy    <       0.05599599 Ry

     iteration #  8     ecut=    20.00 Ry     beta= 0.50
     Davidson diagonalization with overlap
     ethr =  3.08E-05,  avg # of iterations =  2.0

     negative rho (up, down):  3.999E-02 0.000E+00

     total cpu time spent up to now is       93.6 secs

     total energy              =   -1421.44882273 Ry
     estimated scf accuracy    <       0.08211410 Ry

     iteration #  9     ecut=    20.00 Ry     beta= 0.50
     Davidson diagonalization with overlap
     ethr =  3.08E-05,  avg # of iterations =  1.0

     negative rho (up, down):  2.038E-02 0.000E+00

     total cpu time spent up to now is      102.4 secs

     total energy              =   -1421.43136344 Ry
     estimated scf accuracy    <       0.05431302 Ry

     iteration # 10     ecut=    20.00 Ry     beta= 0.50
     Davidson diagonalization with overlap
     ethr =  3.08E-05,  avg # of iterations =  2.8

     negative rho (up, down):  8.342E-03 0.000E+00

     total cpu time spent up to now is      113.5 secs

     total energy              =   -1421.44549890 Ry
     estimated scf accuracy    <       0.01228120 Ry

     iteration # 11     ecut=    20.00 Ry     beta= 0.50
     Davidson diagonalization with overlap
     ethr =  1.14E-05,  avg # of iterations =  2.6

     negative rho (up, down):  8.701E-04 0.000E+00

     total cpu time spent up to now is      124.3 secs

     total energy              =   -1421.44585198 Ry
     estimated scf accuracy    <       0.02961847 Ry

     iteration # 12     ecut=    20.00 Ry     beta= 0.50
     Davidson diagonalization with overlap
     ethr =  1.14E-05,  avg # of iterations =  1.1

     negative rho (up, down):  8.915E-04 0.000E+00

     total cpu time spent up to now is      133.1 secs

     total energy              =   -1421.44393945 Ry
     estimated scf accuracy    <       0.03081425 Ry

     iteration # 13     ecut=    20.00 Ry     beta= 0.50
     Davidson diagonalization with overlap
     ethr =  1.14E-05,  avg # of iterations =  1.0

     negative rho (up, down):  1.850E-03 0.000E+00

     total cpu time spent up to now is      141.7 secs

     total energy              =   -1421.43928571 Ry
     estimated scf accuracy    <       0.01856072 Ry

     iteration # 14     ecut=    20.00 Ry     beta= 0.50
     Davidson diagonalization with overlap
     ethr =  1.14E-05,  avg # of iterations =  2.3

     negative rho (up, down):  1.530E-03 0.000E+00

     total cpu time spent up to now is      152.6 secs

     total energy              =   -1421.44251324 Ry
     estimated scf accuracy    <       0.00077261 Ry

     iteration # 15     ecut=    20.00 Ry     beta= 0.50
     Davidson diagonalization with overlap
     ethr =  7.15E-07,  avg # of iterations =  6.6

     negative rho (up, down):  1.514E-03 0.000E+00

     total cpu time spent up to now is      167.8 secs

     total energy              =   -1421.44261615 Ry
     estimated scf accuracy    <       0.00174515 Ry

     iteration # 16     ecut=    20.00 Ry     beta= 0.50
     Davidson diagonalization with overlap
     ethr =  7.15E-07,  avg # of iterations =  1.0

     negative rho (up, down):  1.004E-03 0.000E+00

     total cpu time spent up to now is      177.4 secs

     total energy              =   -1421.44250693 Ry
     estimated scf accuracy    <       0.00090951 Ry

     iteration # 17     ecut=    20.00 Ry     beta= 0.50
     Davidson diagonalization with overlap
     ethr =  7.15E-07,  avg # of iterations =  2.0

     negative rho (up, down):  6.612E-05 0.000E+00

     total cpu time spent up to now is      189.1 secs

     total energy              =   -1421.44256385 Ry
     estimated scf accuracy    <       0.00012777 Ry

     iteration # 18     ecut=    20.00 Ry     beta= 0.50
     Davidson diagonalization with overlap
     c_bands:  1 eigenvalues not converged
     ethr =  1.18E-07,  avg # of iterations =  5.9

     negative rho (up, down):  7.997E-05 0.000E+00

     total cpu time spent up to now is      201.7 secs

     total energy              =   -1421.44255919 Ry
     estimated scf accuracy    <       0.00008456 Ry

     iteration # 19     ecut=    20.00 Ry     beta= 0.50
     Davidson diagonalization with overlap
     c_bands:  1 eigenvalues not converged
     ethr =  7.83E-08,  avg # of iterations =  7.6

     negative rho (up, down):  1.011E-04 0.000E+00

     total cpu time spent up to now is      215.6 secs

     total energy              =   -1421.44257315 Ry
     estimated scf accuracy    <       0.00000075 Ry

     iteration # 20     ecut=    20.00 Ry     beta= 0.50
     Davidson diagonalization with overlap
     c_bands:  1 eigenvalues not converged
     ethr =  6.94E-10,  avg # of iterations = 13.7

     negative rho (up, down):  8.463E-05 0.000E+00

     total cpu time spent up to now is      241.4 secs

     total energy              =   -1421.44257642 Ry
     estimated scf accuracy    <       0.00000381 Ry

     iteration # 21     ecut=    20.00 Ry     beta= 0.50
     Davidson diagonalization with overlap
     ethr =  6.94E-10,  avg # of iterations =  1.9

     negative rho (up, down):  1.082E-04 0.000E+00

     total cpu time spent up to now is      251.5 secs

     total energy              =   -1421.44257620 Ry
     estimated scf accuracy    <       0.00000219 Ry

     iteration # 22     ecut=    20.00 Ry     beta= 0.50
     Davidson diagonalization with overlap
     ethr =  6.94E-10,  avg # of iterations =  2.9

     negative rho (up, down):  1.125E-04 0.000E+00

     total cpu time spent up to now is      268.6 secs

     total energy              =   -1421.44257633 Ry
     estimated scf accuracy    <       0.00000028 Ry

     iteration # 23     ecut=    20.00 Ry     beta= 0.50
     Davidson diagonalization with overlap
     ethr =  2.62E-10,  avg # of iterations =  4.9

     negative rho (up, down):  1.067E-04 0.000E+00

     total cpu time spent up to now is      281.5 secs

     End of self-consistent calculation

          k = 0.0208 0.0208 0.0000 ( 17121 PWs)   bands (ev):

   -10.6020  -9.2135  -8.8509  -8.8509  -8.3545  -8.3545  -7.4765  -7.4765
    -7.1227  -7.0475  -6.9842  -6.9842  -6.6335  -6.6335  -6.1468  -5.7619
    -5.3296  -5.3296  -5.2769  -5.2769  -4.8431  -4.8431  -4.7945  -4.1987
    -3.6345  -3.2477  -3.2477  -3.1552  -3.1552  -2.6790  -2.5245  -2.5245
    -2.2669  -2.2669  -2.0212  -2.0212  -1.9168  -1.9168  -1.8781  -1.7888
    -1.7888  -1.7212  -1.2583  -0.9889  -0.9889  -0.8491  -0.4909  -0.4909
    -0.4393  -0.3933  -0.3933  -0.3558  -0.2228  -0.2228   0.0238   0.1733
     0.2053   0.2053   0.2111   0.2111   0.2181   0.2843   0.2843   1.0490
     1.2377

          k = 0.0208 0.0625 0.0000 ( 17086 PWs)   bands (ev):

   -10.5391  -9.2866  -9.1511  -8.7887  -8.2927  -7.9086  -7.7984  -7.5525
    -7.4147  -7.0613  -6.9857  -6.9228  -6.4330  -6.1881  -6.0858  -5.7570
    -5.7011  -5.6023  -5.2686  -4.7824  -4.7344  -4.2982  -4.2553  -4.1423
    -4.1373  -4.0557  -3.5745  -3.1896  -2.9223  -2.8051  -2.6197  -2.5566
    -2.4648  -2.2091  -2.1965  -2.1472  -2.0870  -1.9609  -1.8591  -1.8196
    -1.5285  -1.3126  -1.2890  -1.2422  -1.1956  -0.9323  -0.8980  -0.7748
    -0.7741  -0.6767  -0.6313  -0.2076  -0.1648   0.0297   0.0572   0.0987
     0.2617   0.2693   0.6347   0.6770   0.6838   0.7884   0.8777   0.9526
     1.1314

          k = 0.0208 0.1042 0.0000 ( 17104 PWs)   bands (ev):

   -10.4134  -9.6612  -9.0263  -8.6645  -8.2803  -8.1690  -7.9221  -7.4294
    -7.2915  -7.1830  -6.8623  -6.8001  -6.5548  -6.1244  -6.0662  -5.8255
    -5.4812  -5.1467  -5.0021  -4.9821  -4.6609  -4.4181  -4.1383  -4.0147
    -3.9353  -3.6979  -3.6638  -3.6395  -3.3424  -3.2837  -3.0738  -2.9079
    -2.3985  -2.3458  -2.0948  -2.0496  -1.9997  -1.8405  -1.7443  -1.7028
    -1.6394  -1.6111  -1.6068  -1.5458  -1.4535  -1.1250  -1.0778  -1.0075
    -0.8205  -0.7897  -0.2458  -0.1968  -0.0492   0.0062   0.2612   0.3736
     0.3856   0.4429   0.6326   0.7723   0.9261   1.0186   1.0763   1.0808
     1.2367

          k = 0.0208 0.1458 0.0000 ( 17039 PWs)   bands (ev):

   -10.2250  -9.9741  -8.8394  -8.5906  -8.4785  -8.2309  -7.9836  -7.7370
    -7.1070  -6.8613  -6.6774  -6.6161  -6.5097  -6.4314  -6.3714  -5.7830
    -5.1439  -4.9642  -4.8218  -4.7212  -4.4790  -4.4228  -4.3493  -4.2370
    -4.1143  -3.8312  -3.6531  -3.5873  -3.4706  -3.0382  -3.0048  -2.9014
    -2.7702  -2.6746  -2.3303  -2.3171  -2.1678  -1.9314  -1.9260  -1.7078
    -1.6604  -1.5735  -1.5279  -1.4214  -1.3855  -1.3494  -1.2955  -0.9260
    -0.6979  -0.6553  -0.4425  -0.2519  -0.2017   0.1234   0.3519   0.4475
     0.5400   0.5597   0.7572   0.7909   0.8309   0.8708   1.3643   1.4445
     1.5380

          k = 0.0625 0.0625 0.0000 ( 17074 PWs)   bands (ev):

   -10.4762  -9.2242  -9.2242  -9.0887  -7.9838  -7.8468  -7.8468  -7.7367
    -7.7367  -6.9239  -6.6160  -6.5113  -6.5113  -6.3718  -6.3718  -5.6957
    -5.6957  -5.1561  -5.1561  -5.0624  -4.4786  -4.2377  -4.2377  -4.0831
    -4.0831  -4.0759  -3.7208  -3.0360  -3.0360  -2.9298  -2.9298  -2.8616
    -2.8616  -2.7464  -2.7464  -2.0681  -1.7612  -1.6618  -1.6208  -1.6069
    -1.6069  -1.4684  -1.4684  -1.2346  -1.2346  -0.7864  -0.6789  -0.6735
    -0.6180  -0.6180  -0.5738  -0.5738  -0.2839  -0.2839   0.1103   0.1103
     0.5281   0.5281   0.5484   0.6033   0.7007   0.7353   0.7353   0.7920
     1.1332

          k = 0.0625 0.1042 0.0000 ( 17072 PWs)   bands (ev):

   -10.3506  -9.5987  -9.0997  -8.9640  -8.3547  -8.2182  -7.7232  -7.6136
    -7.1217  -6.9840  -6.8774  -6.8006  -6.2495  -6.0630  -5.9035  -5.7647
    -5.5735  -5.5192  -4.9221  -4.8424  -4.5567  -4.4688  -4.1168  -3.9650
    -3.9534  -3.7412  -3.6371  -3.5806  -3.3946  -3.2672  -3.2228  -3.1361
    -2.7407  -2.6293  -2.4868  -2.4508  -2.4040  -2.0187  -1.9391  -1.6443
    -1.5476  -1.3485  -1.1938  -1.1278  -1.0399  -0.9489  -0.7310  -0.6345
    -0.6170  -0.5007  -0.4910  -0.4595  -0.3849  -0.1955   0.2008   0.2103
     0.2140   0.4171   0.6897   0.8416   0.8458   0.8518   0.9842   1.1294
     1.4168

          k = 0.0625 0.1458 0.0000 ( 17067 PWs)   bands (ev):

   -10.1622  -9.9115  -8.9131  -8.7771  -8.6646  -8.5285  -7.5380  -7.4291
    -7.2914  -7.1835  -6.6158  -6.4488  -6.3698  -6.0665  -5.8229  -5.7226
    -5.3903  -5.2396  -5.1465  -5.0833  -4.5256  -4.3627  -3.9357  -3.8837
    -3.8277  -3.7886  -3.7700  -3.6948  -3.5552  -3.5262  -3.1761  -3.1552
    -2.9784  -2.5594  -2.4934  -2.4546  -2.3185  -2.2709  -2.2237  -1.8322
    -1.7935  -1.4694  -1.2369  -1.1690  -1.0983  -0.9734  -0.9306  -0.7860
    -0.4223  -0.3249  -0.2893  -0.1431  -0.0909  -0.0648   0.0369   0.2269
     0.3627   0.5057   0.5399   0.6845   0.8742   1.0045   1.0264   1.2583
     1.4267

          k = 0.1042 0.1042 0.0000 ( 17034 PWs)   bands (ev):

   -10.2249  -9.4737  -9.4737  -8.8394  -8.7267  -8.0942  -8.0942  -7.3530
    -6.9992  -6.9992  -6.6774  -6.2672  -6.2672  -5.9404  -5.9404  -5.6431
    -5.6431  -5.2073  -4.9172  -4.9172  -4.8024  -4.8024  -4.0907  -4.0907
    -3.8869  -3.8310  -3.5160  -3.5160  -3.4627  -3.4627  -3.1013  -3.1013
    -2.8010  -2.8010  -2.7553  -2.7553  -2.5621  -2.3767  -2.2993  -1.5275
    -1.4296  -1.4296  -1.0177  -0.9124  -0.8319  -0.8319  -0.7286  -0.7286
    -0.6138  -0.6138  -0.4841  -0.1342  -0.0991  -0.0991   0.0176   0.0799
     0.0799   0.3814   0.7563   1.0126   1.1005   1.1005   1.2216   1.2216
     1.2994

          k = 0.1042 0.1458 0.0000 ( 17050 PWs)   bands (ev):

   -10.0367  -9.7862  -9.2866  -9.0375  -8.6527  -8.4043  -7.9085  -7.6614
    -6.8157  -6.5715  -6.4927  -6.3270  -6.2470  -5.7567  -5.6018  -5.6003
    -5.5122  -5.4611  -5.2189  -4.9623  -4.8819  -4.6233  -4.3856  -4.2427
    -4.2410  -3.6478  -3.5286  -3.4043  -3.3353  -3.2858  -3.2702  -3.0965
    -3.0498  -2.9194  -2.8589  -2.6776  -2.6680  -2.1524  -2.1465  -1.9536
    -1.4464  -1.3673  -1.3525  -1.2529  -1.1200  -1.0187  -0.6730  -0.6567
    -0.4386  -0.4237  -0.2068  -0.1043  -0.0261   0.0292   0.1112   0.1387
     0.6217   0.6669   0.6749   0.7420   0.9490   1.2746   1.2893   1.3094
     1.3419

          k = 0.1458 0.1458 0.0000 ( 17054 PWs)   bands (ev):

    -9.8487  -9.5986  -9.5986  -9.3490  -8.4663  -8.2181  -8.2181  -7.9704
    -6.3084  -6.1448  -6.1448  -6.0629  -6.0629  -5.9023  -5.9023  -5.8179
    -5.4211  -5.4211  -5.1808  -5.1808  -4.7813  -4.7812  -4.5405  -4.5405
    -4.0633  -4.0633  -3.8249  -3.8249  -3.4649  -3.2218  -3.2218  -2.9793
    -2.7252  -2.6801  -2.6801  -2.4423  -2.4423  -2.4150  -1.9750  -1.9750
    -1.7394  -1.7394  -1.4378  -1.1775  -1.1334  -1.0392  -0.9450  -0.9450
    -0.7593  -0.7123   0.1487   0.1487   0.3763   0.3803   0.3803   0.6315
     0.6574   0.7951   0.7951   0.8307   0.8971   1.0062   1.0062   1.0249
     1.0249

     the Fermi energy is     0.0553 ev

!    total energy              =   -1421.44257631 Ry

     total all-electron energy =    -17482.582713 Ry
     estimated scf accuracy    <       0.00000002 Ry
     smearing contrib. (-TS)   =      -0.00119232 Ry
     internal energy E=F+TS    =   -1421.44138399 Ry

     The total energy is F=E-TS. E is the sum of the following terms:
     one-electron contribution =   -1568.24463926 Ry
     hartree contribution      =     810.23923359 Ry
     xc contribution           =     -91.32952912 Ry
     ewald contribution        =     676.34223543 Ry
     one-center paw contrib.   =   -1248.44868463 Ry

     convergence has been achieved in  23 iterations

     negative rho (up, down):  1.067E-04 0.000E+00

     Forces acting on atoms (cartesian axes, Ry/au):

     atom    1 type  1   force =     0.00000000    0.00000000   -0.00567578
     atom    2 type  1   force =     0.00000000    0.00000013   -0.00567567
     atom    3 type  1   force =    -0.00000000   -0.00000013   -0.00567567
     atom    4 type  1   force =     0.00000013   -0.00000000   -0.00567567
     atom    5 type  1   force =     0.00000013    0.00000013   -0.00567556
     atom    6 type  1   force =     0.00000013   -0.00000013   -0.00567556
     atom    7 type  1   force =    -0.00000013   -0.00000000   -0.00567567
     atom    8 type  1   force =    -0.00000013    0.00000013   -0.00567556
     atom    9 type  1   force =    -0.00000013   -0.00000013   -0.00567556
     atom   10 type  1   force =     0.00000000    0.00000000    0.00058842
     atom   11 type  1   force =     0.00000013    0.00000000    0.00058827
     atom   12 type  1   force =     0.00000000   -0.00000000    0.00058842
     atom   13 type  1   force =     0.00000000    0.00000013    0.00058827
     atom   14 type  1   force =     0.00000000    0.00000000    0.00058835
     atom   15 type  1   force =     0.00000000   -0.00000013    0.00058827
     atom   16 type  1   force =    -0.00000000    0.00000000    0.00058842
     atom   17 type  1   force =    -0.00000013    0.00000000    0.00058827
     atom   18 type  1   force =    -0.00000000   -0.00000000    0.00058842
     atom   19 type  1   force =     0.00000000    0.00000000   -0.00058851
     atom   20 type  1   force =     0.00000000    0.00000002   -0.00058824
     atom   21 type  1   force =     0.00000000   -0.00000002   -0.00058824
     atom   22 type  1   force =     0.00000002    0.00000000   -0.00058824
     atom   23 type  1   force =     0.00000012    0.00000012   -0.00058832
     atom   24 type  1   force =     0.00000012   -0.00000012   -0.00058832
     atom   25 type  1   force =    -0.00000002    0.00000000   -0.00058824
     atom   26 type  1   force =    -0.00000012    0.00000012   -0.00058832
     atom   27 type  1   force =    -0.00000012   -0.00000012   -0.00058832
     atom   28 type  1   force =    -0.00000005   -0.00000005    0.00567570
     atom   29 type  1   force =    -0.00000001    0.00000000    0.00567561
     atom   30 type  1   force =    -0.00000005    0.00000005    0.00567570
     atom   31 type  1   force =     0.00000000   -0.00000001    0.00567561
     atom   32 type  1   force =     0.00000000    0.00000000    0.00567506
     atom   33 type  1   force =     0.00000000    0.00000001    0.00567561
     atom   34 type  1   force =     0.00000005   -0.00000005    0.00567570
     atom   35 type  1   force =     0.00000001    0.00000000    0.00567561
     atom   36 type  1   force =     0.00000005    0.00000005    0.00567570

     Total force =     0.017118     Total SCF correction =     0.000164

     BFGS Geometry Optimization
     Energy error            =      0.0E+00
     Gradient error          =      5.7E-03

     number of scf cycles    =   1
     number of bfgs steps    =   0

     energy   new            =   -1421.4425763115 Ry

     new trust radius        =       0.0056756987 bohr
     new conv_thr            =       0.0000001000 Ry


ATOMIC_POSITIONS (alat)
Al            0.0000000000        0.0000000000        0.0000000000    0   0   0
Al            0.0000000000        1.0000000000        0.0000000000    0   0   0
Al            0.0000000000        2.0000000000        0.0000000000    0   0   0
Al            1.0000000000        0.0000000000        0.0000000000    0   0   0
Al            1.0000000000        1.0000000000        0.0000000000    0   0   0
Al            1.0000000000        2.0000000000        0.0000000000    0   0   0
Al            2.0000000000        0.0000000000        0.0000000000    0   0   0
Al            2.0000000000        1.0000000000        0.0000000000    0   0   0
Al            2.0000000000        2.0000000000        0.0000000000    0   0   0
Al            0.5000000000        0.5000000000        0.7071067690    0   0   0
Al            0.5000000000        1.5000000000        0.7071067690    0   0   0
Al            0.5000000000        2.5000000000        0.7071067690    0   0   0
Al            1.5000000000        0.5000000000        0.7071067690    0   0   0
Al            1.5000000000        1.5000000000        0.7071067690    0   0   0
Al            1.5000000000        2.5000000000        0.7071067690    0   0   0
Al            2.5000000000        0.5000000000        0.7071067690    0   0   0
Al            2.5000000000        1.5000000000        0.7071067690    0   0   0
Al            2.5000000000        2.5000000000        0.7071067690    0   0   0
Al            0.0000000000        0.0000000000        1.4141044435    0   0   1
Al            0.0000000000        1.0000000000        1.4141044945    0   0   1
Al            0.0000000000        2.0000000000        1.4141044945    0   0   1
Al            1.0000000000        0.0000000000        1.4141044945    0   0   1
Al            1.0000000000        1.0000000000        1.4141044787    0   0   1
Al            1.0000000000        2.0000000000        1.4141044787    0   0   1
Al            2.0000000000        0.0000000000        1.4141044945    0   0   1
Al            2.0000000000        1.0000000000        1.4141044787    0   0   1
Al            2.0000000000        2.0000000000        1.4141044787    0   0   1
Al            0.5000000000        0.5000000000        2.1223723940    0   0   1
Al            0.5000000000        1.5000000000        2.1223723784    0   0   1
Al            0.5000000000        2.5000000000        2.1223723940    0   0   1
Al            1.5000000000        0.5000000000        2.1223723784    0   0   1
Al            1.5000000000        1.5000000000        2.1223722748    0   0   1
Al            1.5000000000        2.5000000000        2.1223723784    0   0   1
Al            2.5000000000        0.5000000000        2.1223723940    0   0   1
Al            2.5000000000        1.5000000000        2.1223723784    0   0   1
Al            2.5000000000        2.5000000000        2.1223723940    0   0   1



     Writing output data file ./tmp/Al.save/
     NEW-OLD atomic charge density approx. for the potential

     negative rho (up, down):  1.073E-04 0.000E+00

     total cpu time spent up to now is      287.9 secs

     Self-consistent Calculation

     iteration #  1     ecut=    20.00 Ry     beta= 0.50
     Davidson diagonalization with overlap
     ethr =  1.00E-06,  avg # of iterations =  2.0

     Threshold (ethr) on eigenvalues was too large:
     Diagonalizing with lowered threshold

     Davidson diagonalization with overlap
     ethr =  1.70E-08,  avg # of iterations =  8.3

     negative rho (up, down):  1.015E-04 0.000E+00

     total cpu time spent up to now is      315.0 secs

     total energy              =   -1421.44285949 Ry
     estimated scf accuracy    <       0.00001568 Ry

     iteration #  2     ecut=    20.00 Ry     beta= 0.50
     Davidson diagonalization with overlap
     ethr =  1.45E-08,  avg # of iterations =  1.1

     negative rho (up, down):  9.599E-05 0.000E+00

     total cpu time spent up to now is      324.3 secs

     total energy              =   -1421.44285800 Ry
     estimated scf accuracy    <       0.00000624 Ry

     iteration #  3     ecut=    20.00 Ry     beta= 0.50
     Davidson diagonalization with overlap
     ethr =  5.78E-09,  avg # of iterations =  6.6

     negative rho (up, down):  9.784E-05 0.000E+00

     total cpu time spent up to now is      337.6 secs

     total energy              =   -1421.44285897 Ry
     estimated scf accuracy    <       0.00000044 Ry

     iteration #  4     ecut=    20.00 Ry     beta= 0.50
     Davidson diagonalization with overlap
     ethr =  4.03E-10,  avg # of iterations =  5.3

     negative rho (up, down):  1.009E-04 0.000E+00

     total cpu time spent up to now is      350.7 secs

     total energy              =   -1421.44285906 Ry
     estimated scf accuracy    <       0.00000012 Ry

     iteration #  5     ecut=    20.00 Ry     beta= 0.50
     Davidson diagonalization with overlap
     ethr =  1.07E-10,  avg # of iterations = 10.2

     negative rho (up, down):  9.937E-05 0.000E+00

     total cpu time spent up to now is      368.0 secs

     total energy              =   -1421.44286112 Ry
     estimated scf accuracy    <       0.00000084 Ry

     iteration #  6     ecut=    20.00 Ry     beta= 0.50
     Davidson diagonalization with overlap
     ethr =  1.07E-10,  avg # of iterations =  7.5

     negative rho (up, down):  1.070E-04 0.000E+00

     total cpu time spent up to now is      382.6 secs

     End of self-consistent calculation

          k = 0.0208 0.0208 0.0000 ( 17121 PWs)   bands (ev):

   -10.5993  -9.2097  -8.8482  -8.8482  -8.3519  -8.3519  -7.4726  -7.4726
    -7.1200  -7.0479  -6.9804  -6.9804  -6.6308  -6.6308  -6.1441  -5.7580
    -5.3301  -5.3301  -5.2729  -5.2729  -4.8436  -4.8436  -4.7905  -4.2003
    -3.6349  -3.2450  -3.2450  -3.1556  -3.1556  -2.6794  -2.5254  -2.5254
    -2.2648  -2.2648  -2.0228  -2.0228  -1.9128  -1.9128  -1.8799  -1.7860
    -1.7860  -1.7184  -1.2555  -0.9851  -0.9851  -0.8504  -0.4866  -0.4866
    -0.4349  -0.3944  -0.3944  -0.3532  -0.2242  -0.2242   0.0282   0.1719
     0.2049   0.2049   0.2096   0.2096   0.2204   0.2865   0.2865   1.0523
     1.1220

          k = 0.0208 0.0625 0.0000 ( 17086 PWs)   bands (ev):

   -10.5364  -9.2839  -9.1473  -8.7860  -8.2900  -7.9048  -7.7957  -7.5498
    -7.4109  -7.0586  -6.9862  -6.9189  -6.4291  -6.1843  -6.0831  -5.7574
    -5.6972  -5.5996  -5.2691  -4.7828  -4.7305  -4.2986  -4.2513  -4.1396
    -4.1389  -4.0561  -3.5749  -3.1868  -2.9239  -2.8012  -2.6201  -2.5539
    -2.4657  -2.2070  -2.1937  -2.1476  -2.0842  -1.9625  -1.8551  -1.8214
    -1.5300  -1.3115  -1.2863  -1.2381  -1.1954  -0.9285  -0.8938  -0.7763
    -0.7700  -0.6782  -0.6317  -0.2048  -0.1662   0.0340   0.0611   0.0978
     0.2613   0.2678   0.6331   0.6757   0.6858   0.7910   0.8773   0.9512
     1.1340

          k = 0.0208 0.1042 0.0000 ( 17104 PWs)   bands (ev):

   -10.4107  -9.6585  -9.0225  -8.6618  -8.2764  -8.1663  -7.9194  -7.4267
    -7.2877  -7.1803  -6.8628  -6.7962  -6.5509  -6.1249  -6.0623  -5.8216
    -5.4785  -5.1472  -4.9994  -4.9794  -4.6613  -4.4186  -4.1343  -4.0163
    -3.9357  -3.6984  -3.6599  -3.6355  -3.3396  -3.2853  -3.0710  -2.9051
    -2.3957  -2.3466  -2.0927  -2.0477  -1.9979  -1.8421  -1.7403  -1.7046
    -1.6397  -1.6077  -1.6073  -1.5454  -1.4519  -1.1266  -1.0737  -1.0092
    -0.8166  -0.7911  -0.2430  -0.1928  -0.0506   0.0058   0.2639   0.3732
     0.3841   0.4425   0.6312   0.7715   0.9252   1.0182   1.0749   1.0850
     1.2388

          k = 0.0208 0.1458 0.0000 ( 17039 PWs)   bands (ev):

   -10.2223  -9.9715  -8.8356  -8.5868  -8.4759  -8.2282  -7.9810  -7.7343
    -7.1031  -6.8574  -6.6779  -6.6123  -6.5070  -6.4319  -6.3675  -5.7803
    -5.1400  -4.9646  -4.8191  -4.7216  -4.4794  -4.4189  -4.3466  -4.2374
    -4.1115  -3.8328  -3.6503  -3.5889  -3.4666  -3.0386  -3.0008  -2.8986
    -2.7662  -2.6718  -2.3307  -2.3131  -2.1685  -1.9321  -1.9240  -1.7060
    -1.6620  -1.5695  -1.5296  -1.4229  -1.3859  -1.3453  -1.2972  -0.9264
    -0.6983  -0.6514  -0.4386  -0.2523  -0.2031   0.1220   0.3505   0.4463
     0.5396   0.5582   0.7568   0.7894   0.8337   0.8735   1.3634   1.4441
     1.5408

          k = 0.0625 0.0625 0.0000 ( 17074 PWs)   bands (ev):

   -10.4735  -9.2215  -9.2215  -9.0848  -7.9811  -7.8430  -7.8430  -7.7340
    -7.7340  -6.9244  -6.6121  -6.5085  -6.5085  -6.3679  -6.3679  -5.6962
    -5.6962  -5.1522  -5.1522  -5.0596  -4.4790  -4.2381  -4.2381  -4.0804
    -4.0804  -4.0776  -3.7169  -3.0364  -3.0364  -2.9271  -2.9271  -2.8632
    -2.8632  -2.7424  -2.7424  -2.0653  -1.7629  -1.6633  -1.6212  -1.6028
    -1.6028  -1.4699  -1.4699  -1.2319  -1.2319  -0.7820  -0.6761  -0.6708
    -0.6195  -0.6195  -0.5743  -0.5743  -0.2853  -0.2853   0.1142   0.1142
     0.5277   0.5277   0.5469   0.6078   0.7042   0.7340   0.7340   0.7946
     1.1316

          k = 0.0625 0.1042 0.0000 ( 17072 PWs)   bands (ev):

   -10.3479  -9.5960  -9.0970  -8.9602  -8.3520  -8.2144  -7.7193  -7.6109
    -7.1190  -6.9801  -6.8747  -6.8011  -6.2457  -6.0635  -5.9007  -5.7608
    -5.5739  -5.5153  -4.9194  -4.8428  -4.5527  -4.4661  -4.1172  -3.9623
    -3.9550  -3.7384  -3.6376  -3.5766  -3.3950  -3.2645  -3.2244  -3.1321
    -2.7422  -2.6254  -2.4840  -2.4500  -2.4012  -2.0203  -1.9351  -1.6461
    -1.5481  -1.3500  -1.1896  -1.1251  -1.0402  -0.9506  -0.7324  -0.6360
    -0.6142  -0.5022  -0.4883  -0.4600  -0.3853  -0.1927   0.1993   0.2099
     0.2180   0.4157   0.6939   0.8411   0.8494   0.8505   0.9834   1.1336
     1.4195

          k = 0.0625 0.1458 0.0000 ( 17067 PWs)   bands (ev):

   -10.1595  -9.9088  -8.9104  -8.7733  -8.6619  -8.5247  -7.5341  -7.4264
    -7.2876  -7.1808  -6.6163  -6.4460  -6.3703  -6.0626  -5.8190  -5.7198
    -5.3907  -5.2369  -5.1469  -5.0794  -4.5228  -4.3588  -3.9361  -3.8798
    -3.8249  -3.7859  -3.7716  -3.6952  -3.5525  -3.5278  -3.1721  -3.1524
    -2.9788  -2.5610  -2.4894  -2.4506  -2.3201  -2.2714  -2.2196  -1.8281
    -1.7939  -1.4711  -1.2387  -1.1705  -1.0987  -0.9707  -0.9320  -0.7832
    -0.4227  -0.3264  -0.2897  -0.1445  -0.0924  -0.0652   0.0397   0.2265
     0.3667   0.5044   0.5440   0.6873   0.8769   1.0031   1.0251   1.2571
     1.4303

          k = 0.1042 0.1042 0.0000 ( 17034 PWs)   bands (ev):

   -10.2223  -9.4710  -9.4710  -8.8356  -8.7240  -8.0904  -8.0904  -7.3492
    -6.9965  -6.9965  -6.6778  -6.2645  -6.2645  -5.9408  -5.9408  -5.6392
    -5.6392  -5.2077  -4.9133  -4.9133  -4.7996  -4.7996  -4.0880  -4.0880
    -3.8841  -3.8327  -3.5165  -3.5165  -3.4587  -3.4587  -3.1029  -3.1029
    -2.8008  -2.8008  -2.7519  -2.7519  -2.5580  -2.3782  -2.2965  -1.5292
    -1.4301  -1.4301  -1.0133  -0.9097  -0.8336  -0.8336  -0.7291  -0.7291
    -0.6152  -0.6152  -0.4843  -0.1359  -0.0963  -0.0963   0.0205   0.0786
     0.0786   0.3846   0.7592   1.0121   1.0997   1.0997   1.2258   1.2258
     1.3038

          k = 0.1042 0.1458 0.0000 ( 17050 PWs)   bands (ev):

   -10.0340  -9.7836  -9.2839  -9.0348  -8.6489  -8.4005  -7.9047  -7.6575
    -6.8130  -6.5688  -6.4932  -6.3243  -6.2474  -5.7571  -5.5991  -5.5975
    -5.5127  -5.4572  -5.2150  -4.9584  -4.8791  -4.6205  -4.3829  -4.2388
    -4.2371  -3.6494  -3.5246  -3.4059  -3.3357  -3.2818  -3.2674  -3.0967
    -3.0460  -2.9210  -2.8593  -2.6792  -2.6652  -2.1528  -2.1469  -1.9495
    -1.4468  -1.3630  -1.3542  -1.2535  -1.1217  -1.0192  -0.6702  -0.6584
    -0.4400  -0.4254  -0.2082  -0.1014  -0.0275   0.0320   0.1109   0.1416
     0.6205   0.6655   0.6745   0.7454   0.9518   1.2738   1.2931   1.3081
     1.3461

          k = 0.1458 0.1458 0.0000 ( 17054 PWs)   bands (ev):

    -9.8461  -9.5959  -9.5959  -9.3463  -8.4625  -8.2143  -8.2143  -7.9666
    -6.3089  -6.1421  -6.1421  -6.0633  -6.0633  -5.8996  -5.8996  -5.8183
    -5.4184  -5.4183  -5.1781  -5.1781  -4.7774  -4.7774  -4.5366  -4.5366
    -4.0593  -4.0593  -3.8209  -3.8209  -3.4666  -3.2234  -3.2234  -2.9809
    -2.7224  -2.6805  -2.6805  -2.4427  -2.4427  -2.4121  -1.9754  -1.9754
    -1.7398  -1.7398  -1.4336  -1.1792  -1.1290  -1.0364  -0.9467  -0.9467
    -0.7565  -0.7140   0.1473   0.1473   0.3789   0.3789   0.3799   0.6310
     0.6612   0.7939   0.7939   0.8336   0.8966   1.0090   1.0090   1.0236
     1.0236

     the Fermi energy is     0.0558 ev

!    total energy              =   -1421.44286114 Ry

     total all-electron energy =    -17482.582998 Ry
     estimated scf accuracy    <       0.00000001 Ry
     smearing contrib. (-TS)   =      -0.00117574 Ry
     internal energy E=F+TS    =   -1421.44168540 Ry

     The total energy is F=E-TS. E is the sum of the following terms:
     one-electron contribution =   -1567.54365251 Ry
     hartree contribution      =     809.89413023 Ry
     xc contribution           =     -91.32280197 Ry
     ewald contribution        =     675.97830659 Ry
     one-center paw contrib.   =   -1248.44766773 Ry

     convergence has been achieved in   6 iterations

     negative rho (up, down):  1.070E-04 0.000E+00

     Forces acting on atoms (cartesian axes, Ry/au):

     atom    1 type  1   force =     0.00000000    0.00000000   -0.00565520
     atom    2 type  1   force =     0.00000000    0.00000074   -0.00565503
     atom    3 type  1   force =     0.00000000   -0.00000074   -0.00565503
     atom    4 type  1   force =     0.00000074   -0.00000000   -0.00565503
     atom    5 type  1   force =    -0.00000039   -0.00000039   -0.00565519
     atom    6 type  1   force =    -0.00000039    0.00000039   -0.00565519
     atom    7 type  1   force =    -0.00000074    0.00000000   -0.00565503
     atom    8 type  1   force =     0.00000039   -0.00000039   -0.00565519
     atom    9 type  1   force =     0.00000039    0.00000039   -0.00565519
     atom   10 type  1   force =     0.00000050    0.00000050    0.00056757
     atom   11 type  1   force =    -0.00000113    0.00000000    0.00056798
     atom   12 type  1   force =     0.00000050   -0.00000050    0.00056757
     atom   13 type  1   force =     0.00000000   -0.00000113    0.00056798
     atom   14 type  1   force =     0.00000000    0.00000000    0.00056713
     atom   15 type  1   force =     0.00000000    0.00000113    0.00056798
     atom   16 type  1   force =    -0.00000050    0.00000050    0.00056757
     atom   17 type  1   force =     0.00000113    0.00000000    0.00056798
     atom   18 type  1   force =    -0.00000050   -0.00000050    0.00056757
     atom   19 type  1   force =     0.00000000    0.00000000   -0.00023268
     atom   20 type  1   force =     0.00000000    0.00000103   -0.00023341
     atom   21 type  1   force =     0.00000000   -0.00000103   -0.00023341
     atom   22 type  1   force =     0.00000103    0.00000000   -0.00023341
     atom   23 type  1   force =    -0.00000054   -0.00000054   -0.00023292
     atom   24 type  1   force =    -0.00000054    0.00000054   -0.00023292
     atom   25 type  1   force =    -0.00000103    0.00000000   -0.00023341
     atom   26 type  1   force =     0.00000054   -0.00000054   -0.00023292
     atom   27 type  1   force =     0.00000054    0.00000054   -0.00023292
     atom   28 type  1   force =     0.00000043    0.00000043    0.00532054
     atom   29 type  1   force =    -0.00000080    0.00000000    0.00532051
     atom   30 type  1   force =     0.00000043   -0.00000043    0.00532054
     atom   31 type  1   force =     0.00000000   -0.00000080    0.00532051
     atom   32 type  1   force =     0.00000000    0.00000000    0.00532057
     atom   33 type  1   force =     0.00000000    0.00000080    0.00532051
     atom   34 type  1   force =    -0.00000043    0.00000043    0.00532054
     atom   35 type  1   force =     0.00000080   -0.00000000    0.00532051
     atom   36 type  1   force =    -0.00000043   -0.00000043    0.00532054

     Total force =     0.015977     Total SCF correction =     0.000125
     Energy error            =      2.8E-04
     Gradient error          =      5.3E-03

     number of scf cycles    =   2
     number of bfgs steps    =   1

     energy   old            =   -1421.4425763115 Ry
     energy   new            =   -1421.4428611351 Ry

     CASE: energy  _new < energy  _old


     WARNING: bfgs curvature condition failed, Theta= 0.859
     new trust radius        =       0.0062432685 bohr
     new conv_thr            =       0.0000000028 Ry


ATOMIC_POSITIONS (alat)
Al            0.0000000000        0.0000000000        0.0000000000    0   0   0
Al            0.0000000000        1.0000000000        0.0000000000    0   0   0
Al            0.0000000000        2.0000000000        0.0000000000    0   0   0
Al            1.0000000000        0.0000000000        0.0000000000    0   0   0
Al            1.0000000000        1.0000000000        0.0000000000    0   0   0
Al            1.0000000000        2.0000000000        0.0000000000    0   0   0
Al            2.0000000000        0.0000000000        0.0000000000    0   0   0
Al            2.0000000000        1.0000000000        0.0000000000    0   0   0
Al            2.0000000000        2.0000000000        0.0000000000    0   0   0
Al            0.5000000000        0.5000000000        0.7071067690    0   0   0
Al            0.5000000000        1.5000000000        0.7071067690    0   0   0
Al            0.5000000000        2.5000000000        0.7071067690    0   0   0
Al            1.5000000000        0.5000000000        0.7071067690    0   0   0
Al            1.5000000000        1.5000000000        0.7071067690    0   0   0
Al            1.5000000000        2.5000000000        0.7071067690    0   0   0
Al            2.5000000000        0.5000000000        0.7071067690    0   0   0
Al            2.5000000000        1.5000000000        0.7071067690    0   0   0
Al            2.5000000000        2.5000000000        0.7071067690    0   0   0
Al            0.0000000000        0.0000000000        1.4140518927    0   0   1
Al            0.0000000000        1.0000000000        1.4140517898    0   0   1
Al            0.0000000000        2.0000000000        1.4140517898    0   0   1
Al            1.0000000000        0.0000000000        1.4140517898    0   0   1
Al            1.0000000000        1.0000000000        1.4140518773    0   0   1
Al            1.0000000000        2.0000000000        1.4140518773    0   0   1
Al            2.0000000000        0.0000000000        1.4140517898    0   0   1
Al            2.0000000000        1.0000000000        1.4140518773    0   0   1
Al            2.0000000000        2.0000000000        1.4140518773    0   0   1
Al            0.5000000000        0.5000000000        2.1235297499    0   0   1
Al            0.5000000000        1.5000000000        2.1235297277    0   0   1
Al            0.5000000000        2.5000000000        2.1235297499    0   0   1
Al            1.5000000000        0.5000000000        2.1235297277    0   0   1
Al            1.5000000000        1.5000000000        2.1235296333    0   0   1
Al            1.5000000000        2.5000000000        2.1235297277    0   0   1
Al            2.5000000000        0.5000000000        2.1235297499    0   0   1
Al            2.5000000000        1.5000000000        2.1235297277    0   0   1
Al            2.5000000000        2.5000000000        2.1235297499    0   0   1



     Writing output data file ./tmp/Al.save/
     NEW-OLD atomic charge density approx. for the potential

     negative rho (up, down):  1.077E-04 0.000E+00

     total cpu time spent up to now is      388.7 secs

     Self-consistent Calculation

     iteration #  1     ecut=    20.00 Ry     beta= 0.50
     Davidson diagonalization with overlap
     ethr =  1.00E-06,  avg # of iterations =  2.0

     Threshold (ethr) on eigenvalues was too large:
     Diagonalizing with lowered threshold

     Davidson diagonalization with overlap
     ethr =  7.01E-09,  avg # of iterations =  9.8

     negative rho (up, down):  1.069E-04 0.000E+00

     total cpu time spent up to now is      420.4 secs

     total energy              =   -1421.44315059 Ry
     estimated scf accuracy    <       0.00001723 Ry

     iteration #  2     ecut=    20.00 Ry     beta= 0.50
     Davidson diagonalization with overlap
     ethr =  1.60E-08,  avg # of iterations =  1.0

     negative rho (up, down):  1.093E-04 0.000E+00

     total cpu time spent up to now is      430.5 secs

     total energy              =   -1421.44314838 Ry
     estimated scf accuracy    <       0.00000714 Ry

     iteration #  3     ecut=    20.00 Ry     beta= 0.50
     Davidson diagonalization with overlap
     ethr =  6.61E-09,  avg # of iterations =  5.6

     negative rho (up, down):  1.104E-04 0.000E+00

     total cpu time spent up to now is      444.4 secs

     total energy              =   -1421.44314986 Ry
     estimated scf accuracy    <       0.00000038 Ry

     iteration #  4     ecut=    20.00 Ry     beta= 0.50
     Davidson diagonalization with overlap
     ethr =  3.53E-10,  avg # of iterations =  4.9

     negative rho (up, down):  1.091E-04 0.000E+00

     total cpu time spent up to now is      458.6 secs

     total energy              =   -1421.44314995 Ry
     estimated scf accuracy    <       0.00000005 Ry

     iteration #  5     ecut=    20.00 Ry     beta= 0.50
     Davidson diagonalization with overlap
     ethr =  5.02E-11,  avg # of iterations =  7.6

     negative rho (up, down):  1.091E-04 0.000E+00

     total cpu time spent up to now is      476.0 secs

     total energy              =   -1421.44314996 Ry
     estimated scf accuracy    <       0.00000009 Ry

     iteration #  6     ecut=    20.00 Ry     beta= 0.50
     Davidson diagonalization with overlap
     ethr =  5.02E-11,  avg # of iterations =  2.0

     negative rho (up, down):  1.092E-04 0.000E+00

     total cpu time spent up to now is      486.6 secs

     total energy              =   -1421.44314996 Ry
     estimated scf accuracy    <       0.00000001 Ry

     iteration #  7     ecut=    20.00 Ry     beta= 0.50
     Davidson diagonalization with overlap
     ethr =  1.08E-11,  avg # of iterations =  4.9

     negative rho (up, down):  1.092E-04 0.000E+00

     total cpu time spent up to now is      498.2 secs

     total energy              =   -1421.44314996 Ry
     estimated scf accuracy    <       0.00000001 Ry

     iteration #  8     ecut=    20.00 Ry     beta= 0.50
     Davidson diagonalization with overlap
     ethr =  1.08E-11,  avg # of iterations =  1.8

     negative rho (up, down):  1.091E-04 0.000E+00

     total cpu time spent up to now is      508.7 secs

     total energy              =   -1421.44314991 Ry
     estimated scf accuracy    <          8.9E-09 Ry

     iteration #  9     ecut=    20.00 Ry     beta= 0.50
     Davidson diagonalization with overlap
     ethr =  8.29E-12,  avg # of iterations =  7.2

     negative rho (up, down):  1.083E-04 0.000E+00

     total cpu time spent up to now is      524.2 secs

     total energy              =   -1421.44314991 Ry
     estimated scf accuracy    <          4.5E-09 Ry

     iteration # 10     ecut=    20.00 Ry     beta= 0.50
     Davidson diagonalization with overlap
     ethr =  4.14E-12,  avg # of iterations =  2.0

     negative rho (up, down):  1.073E-04 0.000E+00

     total cpu time spent up to now is      534.0 secs

     End of self-consistent calculation

          k = 0.0208 0.0208 0.0000 ( 17121 PWs)   bands (ev):

   -10.5959  -9.2053  -8.8448  -8.8448  -8.3485  -8.3485  -7.4682  -7.4682
    -7.1166  -7.0480  -6.9760  -6.9760  -6.6274  -6.6274  -6.1406  -5.7535
    -5.3301  -5.3301  -5.2685  -5.2685  -4.8436  -4.8436  -4.7860  -4.2018
    -3.6349  -3.2415  -3.2415  -3.1556  -3.1556  -2.6794  -2.5261  -2.5261
    -2.2621  -2.2621  -2.0242  -2.0242  -1.9082  -1.9082  -1.8815  -1.7825
    -1.7825  -1.7148  -1.2519  -0.9807  -0.9807  -0.8515  -0.4818  -0.4818
    -0.4300  -0.3952  -0.3952  -0.3500  -0.2254  -0.2254   0.0332   0.1706
     0.2049   0.2049   0.2083   0.2083   0.2234   0.2893   0.2893   1.0563
     1.1221

          k = 0.0208 0.0625 0.0000 ( 17086 PWs)   bands (ev):

   -10.5330  -9.2805  -9.1429  -8.7826  -8.2866  -7.9004  -7.7923  -7.5464
    -7.4065  -7.0552  -6.9862  -6.9145  -6.4247  -6.1798  -6.0797  -5.7575
    -5.6928  -5.5962  -5.2691  -4.7828  -4.7260  -4.2987  -4.2468  -4.1404
    -4.1361  -4.0561  -3.5748  -3.1833  -2.9253  -2.7966  -2.6200  -2.5503
    -2.4664  -2.2043  -2.1901  -2.1475  -2.0806  -1.9640  -1.8505  -1.8230
    -1.5313  -1.3099  -1.2829  -1.2334  -1.1947  -0.9241  -0.8890  -0.7776
    -0.7652  -0.6796  -0.6318  -0.2013  -0.1674   0.0388   0.0656   0.0971
     0.2613   0.2665   0.6317   0.6745   0.6885   0.7943   0.8773   0.9500
     1.1373

          k = 0.0208 0.1042 0.0000 ( 17104 PWs)   bands (ev):

   -10.4073  -9.6551  -9.0181  -8.6585  -8.2720  -8.1629  -7.9160  -7.4233
    -7.2833  -7.1769  -6.8629  -6.7918  -6.5465  -6.1249  -6.0579  -5.8172
    -5.4751  -5.1472  -4.9960  -4.9759  -4.6614  -4.4186  -4.1298  -4.0178
    -3.9357  -3.6985  -3.6553  -3.6309  -3.3361  -3.2867  -3.0675  -2.9016
    -2.3922  -2.3472  -2.0901  -2.0455  -1.9954  -1.8435  -1.7357  -1.7062
    -1.6398  -1.6074  -1.6039  -1.5445  -1.4497  -1.1279  -1.0691  -1.0107
    -0.8122  -0.7923  -0.2395  -0.1881  -0.0518   0.0057   0.2674   0.3733
     0.3828   0.4425   0.6299   0.7709   0.9245   1.0182   1.0736   1.0897
     1.2415

          k = 0.0208 0.1458 0.0000 ( 17039 PWs)   bands (ev):

   -10.2189  -9.9681  -8.8312  -8.5824  -8.4725  -8.2248  -7.9775  -7.7309
    -7.0987  -6.8530  -6.6780  -6.6078  -6.5036  -6.4319  -6.3631  -5.7768
    -5.1356  -4.9646  -4.8156  -4.7216  -4.4795  -4.4145  -4.3431  -4.2374
    -4.1080  -3.8343  -3.6468  -3.5903  -3.4621  -3.0386  -2.9962  -2.8951
    -2.7616  -2.6683  -2.3307  -2.3084  -2.1691  -1.9325  -1.9214  -1.7035
    -1.6634  -1.5649  -1.5312  -1.4244  -1.3859  -1.3407  -1.2988  -0.9264
    -0.6982  -0.6469  -0.4341  -0.2522  -0.2044   0.1208   0.3492   0.4452
     0.5396   0.5569   0.7568   0.7881   0.8372   0.8770   1.3628   1.4441
     1.5443

          k = 0.0625 0.0625 0.0000 ( 17074 PWs)   bands (ev):

   -10.4702  -9.2182  -9.2182  -9.0805  -7.9777  -7.8386  -7.8386  -7.7306
    -7.7306  -6.9245  -6.6077  -6.5051  -6.5051  -6.3635  -6.3635  -5.6962
    -5.6962  -5.1477  -5.1477  -5.0562  -4.4790  -4.2381  -4.2381  -4.0790
    -4.0769  -4.0769  -3.7123  -3.0363  -3.0363  -2.9236  -2.9236  -2.8646
    -2.8646  -2.7379  -2.7379  -2.0617  -1.7645  -1.6646  -1.6211  -1.5982
    -1.5982  -1.4712  -1.4712  -1.2284  -1.2284  -0.7770  -0.6725  -0.6674
    -0.6208  -0.6208  -0.5743  -0.5743  -0.2865  -0.2865   0.1188   0.1188
     0.5276   0.5276   0.5455   0.6128   0.7082   0.7328   0.7328   0.7979
     1.1302

          k = 0.0625 0.1042 0.0000 ( 17072 PWs)   bands (ev):

   -10.3445  -9.5926  -9.0936  -8.9558  -8.3486  -8.2100  -7.7149  -7.6075
    -7.1156  -6.9757  -6.8713  -6.8011  -6.2412  -6.0635  -5.8973  -5.7563
    -5.5739  -5.5108  -4.9160  -4.8428  -4.5482  -4.4626  -4.1172  -3.9588
    -3.9565  -3.7350  -3.6377  -3.5720  -3.3950  -3.2610  -3.2258  -3.1275
    -2.7436  -2.6208  -2.4805  -2.4488  -2.3978  -2.0216  -1.9305  -1.6477
    -1.5482  -1.3513  -1.1847  -1.1216  -1.0401  -0.9521  -0.7336  -0.6372
    -0.6107  -0.5036  -0.4848  -0.4600  -0.3854  -0.1892   0.1980   0.2098
     0.2226   0.4145   0.6986   0.8410   0.8494   0.8536   0.9827   1.1383
     1.4228

          k = 0.0625 0.1458 0.0000 ( 17067 PWs)   bands (ev):

   -10.1561  -9.9054  -8.9070  -8.7689  -8.6585  -8.5203  -7.5297  -7.4230
    -7.2832  -7.1774  -6.6164  -6.4426  -6.3704  -6.0582  -5.8145  -5.7164
    -5.3908  -5.2334  -5.1469  -5.0750  -4.5193  -4.3543  -3.9361  -3.8753
    -3.8214  -3.7824  -3.7731  -3.6952  -3.5490  -3.5293  -3.1675  -3.1489
    -2.9788  -2.5624  -2.4847  -2.4461  -2.3214  -2.2713  -2.2151  -1.8234
    -1.7939  -1.4727  -1.2403  -1.1718  -1.0987  -0.9672  -0.9333  -0.7797
    -0.4226  -0.3278  -0.2898  -0.1458  -0.0937  -0.0653   0.0432   0.2265
     0.3713   0.5033   0.5487   0.6909   0.8804   1.0019   1.0240   1.2559
     1.4345

          k = 0.1042 0.1042 0.0000 ( 17034 PWs)   bands (ev):

   -10.2189  -9.4676  -9.4676  -8.8312  -8.7206  -8.0860  -8.0860  -7.3448
    -6.9931  -6.9931  -6.6779  -6.2611  -6.2611  -5.9409  -5.9409  -5.6348
    -5.6348  -5.2077  -4.9088  -4.9088  -4.7962  -4.7962  -4.0845  -4.0845
    -3.8807  -3.8341  -3.5166  -3.5166  -3.4541  -3.4541  -3.1043  -3.1043
    -2.8003  -2.8003  -2.7478  -2.7478  -2.5534  -2.3796  -2.2929  -1.5308
    -1.4302  -1.4302  -1.0083  -0.9063  -0.8351  -0.8351  -0.7291  -0.7291
    -0.6164  -0.6164  -0.4841  -0.1374  -0.0928  -0.0928   0.0241   0.0773
     0.0773   0.3885   0.7627   1.0120   1.0990   1.0990   1.2306   1.2306
     1.3088

          k = 0.1042 0.1458 0.0000 ( 17050 PWs)   bands (ev):

   -10.0307  -9.7802  -9.2805  -9.0314  -8.6445  -8.3961  -7.9003  -7.6531
    -6.8096  -6.5654  -6.4933  -6.3209  -6.2475  -5.7572  -5.5956  -5.5941
    -5.5127  -5.4528  -5.2106  -4.9540  -4.8757  -4.6171  -4.3794  -4.2343
    -4.2326  -3.6509  -3.5201  -3.4074  -3.3358  -3.2773  -3.2639  -3.0966
    -3.0416  -2.9224  -2.8593  -2.6806  -2.6617  -2.1528  -2.1469  -1.9448
    -1.4468  -1.3582  -1.3558  -1.2535  -1.1233  -1.0193  -0.6668  -0.6599
    -0.4413  -0.4269  -0.2094  -0.0978  -0.0288   0.0355   0.1110   0.1451
     0.6194   0.6642   0.6746   0.7494   0.9553   1.2731   1.2974   1.3071
     1.3509

          k = 0.1458 0.1458 0.0000 ( 17054 PWs)   bands (ev):

    -9.8427  -9.5926  -9.5926  -9.3429  -8.4581  -8.2099  -8.2099  -7.9622
    -6.3089  -6.1386  -6.1386  -6.0634  -6.0634  -5.8961  -5.8961  -5.8184
    -5.4149  -5.4149  -5.1746  -5.1746  -4.7729  -4.7729  -4.5321  -4.5321
    -4.0548  -4.0548  -3.8164  -3.8164  -3.4680  -3.2249  -3.2249  -2.9823
    -2.7189  -2.6805  -2.6805  -2.4427  -2.4427  -2.4086  -1.9754  -1.9754
    -1.7398  -1.7398  -1.4288  -1.1808  -1.1240  -1.0329  -0.9482  -0.9482
    -0.7530  -0.7156   0.1460   0.1460   0.3776   0.3776   0.3840   0.6309
     0.6655   0.7928   0.7928   0.8372   0.8965   1.0125   1.0125   1.0226
     1.0226

     the Fermi energy is     0.0566 ev

!    total energy              =   -1421.44314991 Ry

     total all-electron energy =    -17482.583287 Ry
     estimated scf accuracy    <          1.2E-09 Ry
     smearing contrib. (-TS)   =      -0.00114340 Ry
     internal energy E=F+TS    =   -1421.44200652 Ry

     The total energy is F=E-TS. E is the sum of the following terms:
     one-electron contribution =   -1566.74896441 Ry
     hartree contribution      =     809.49886551 Ry
     xc contribution           =     -91.31526615 Ry
     ewald contribution        =     675.56988751 Ry
     one-center paw contrib.   =   -1248.44652897 Ry

     convergence has been achieved in  10 iterations

     negative rho (up, down):  1.073E-04 0.000E+00

     Forces acting on atoms (cartesian axes, Ry/au):

     atom    1 type  1   force =     0.00000000    0.00000000   -0.00564412
     atom    2 type  1   force =     0.00000000    0.00000064   -0.00564401
     atom    3 type  1   force =    -0.00000000   -0.00000064   -0.00564401
     atom    4 type  1   force =     0.00000064   -0.00000000   -0.00564401
     atom    5 type  1   force =    -0.00000031   -0.00000031   -0.00564406
     atom    6 type  1   force =    -0.00000031    0.00000031   -0.00564406
     atom    7 type  1   force =    -0.00000064    0.00000000   -0.00564401
     atom    8 type  1   force =     0.00000031   -0.00000031   -0.00564406
     atom    9 type  1   force =     0.00000031    0.00000031   -0.00564406
     atom   10 type  1   force =     0.00000044    0.00000044    0.00056136
     atom   11 type  1   force =    -0.00000090    0.00000000    0.00056174
     atom   12 type  1   force =     0.00000044   -0.00000044    0.00056136
     atom   13 type  1   force =     0.00000000   -0.00000090    0.00056174
     atom   14 type  1   force =     0.00000000    0.00000000    0.00056096
     atom   15 type  1   force =     0.00000000    0.00000090    0.00056174
     atom   16 type  1   force =    -0.00000044    0.00000044    0.00056136
     atom   17 type  1   force =     0.00000090    0.00000000    0.00056174
     atom   18 type  1   force =    -0.00000044   -0.00000044    0.00056136
     atom   19 type  1   force =     0.00000000    0.00000000    0.00012947
     atom   20 type  1   force =     0.00000000    0.00000088    0.00012874
     atom   21 type  1   force =     0.00000000   -0.00000088    0.00012874
     atom   22 type  1   force =     0.00000088    0.00000000    0.00012874
     atom   23 type  1   force =    -0.00000046   -0.00000046    0.00012909
     atom   24 type  1   force =    -0.00000046    0.00000046    0.00012909
     atom   25 type  1   force =    -0.00000088    0.00000000    0.00012874
     atom   26 type  1   force =     0.00000046   -0.00000046    0.00012909
     atom   27 type  1   force =     0.00000046    0.00000046    0.00012909
     atom   28 type  1   force =     0.00000032    0.00000032    0.00495358
     atom   29 type  1   force =    -0.00000065    0.00000000    0.00495355
     atom   30 type  1   force =     0.00000032   -0.00000032    0.00495358
     atom   31 type  1   force =     0.00000000   -0.00000065    0.00495355
     atom   32 type  1   force =     0.00000000    0.00000000    0.00495370
     atom   33 type  1   force =     0.00000000    0.00000065    0.00495355
     atom   34 type  1   force =    -0.00000032    0.00000032    0.00495358
     atom   35 type  1   force =     0.00000065    0.00000000    0.00495355
     atom   36 type  1   force =    -0.00000032   -0.00000032    0.00495358

     Total force =     0.014866     Total SCF correction =     0.000042
     Energy error            =      2.9E-04
     Gradient error          =      5.0E-03

     number of scf cycles    =   3
     number of bfgs steps    =   2

     energy   old            =   -1421.4428611351 Ry
     energy   new            =   -1421.4431499143 Ry

     CASE: energy  _new < energy  _old

     new trust radius        =       0.0093649028 bohr
     new conv_thr            =       0.0000000029 Ry


ATOMIC_POSITIONS (alat)
Al            0.0000000000        0.0000000000        0.0000000000    0   0   0
Al            0.0000000000        1.0000000000        0.0000000000    0   0   0
Al            0.0000000000        2.0000000000        0.0000000000    0   0   0
Al            1.0000000000        0.0000000000        0.0000000000    0   0   0
Al            1.0000000000        1.0000000000        0.0000000000    0   0   0
Al            1.0000000000        2.0000000000        0.0000000000    0   0   0
Al            2.0000000000        0.0000000000        0.0000000000    0   0   0
Al            2.0000000000        1.0000000000        0.0000000000    0   0   0
Al            2.0000000000        2.0000000000        0.0000000000    0   0   0
Al            0.5000000000        0.5000000000        0.7071067690    0   0   0
Al            0.5000000000        1.5000000000        0.7071067690    0   0   0
Al            0.5000000000        2.5000000000        0.7071067690    0   0   0
Al            1.5000000000        0.5000000000        0.7071067690    0   0   0
Al            1.5000000000        1.5000000000        0.7071067690    0   0   0
Al            1.5000000000        2.5000000000        0.7071067690    0   0   0
Al            2.5000000000        0.5000000000        0.7071067690    0   0   0
Al            2.5000000000        1.5000000000        0.7071067690    0   0   0
Al            2.5000000000        2.5000000000        0.7071067690    0   0   0
Al            0.0000000000        0.0000000000        1.4142626960    0   0   1
Al            0.0000000000        1.0000000000        1.4142623515    0   0   1
Al            0.0000000000        2.0000000000        1.4142623515    0   0   1
Al            1.0000000000        0.0000000000        1.4142623515    0   0   1
Al            1.0000000000        1.0000000000        1.4142624878    0   0   1
Al            1.0000000000        2.0000000000        1.4142624878    0   0   1
Al            2.0000000000        0.0000000000        1.4142623515    0   0   1
Al            2.0000000000        1.0000000000        1.4142624878    0   0   1
Al            2.0000000000        2.0000000000        1.4142624878    0   0   1
Al            0.5000000000        0.5000000000        2.1252657186    0   0   1
Al            0.5000000000        1.5000000000        2.1252656809    0   0   1
Al            0.5000000000        2.5000000000        2.1252657186    0   0   1
Al            1.5000000000        0.5000000000        2.1252656809    0   0   1
Al            1.5000000000        1.5000000000        2.1252656709    0   0   1
Al            1.5000000000        2.5000000000        2.1252656809    0   0   1
Al            2.5000000000        0.5000000000        2.1252657186    0   0   1
Al            2.5000000000        1.5000000000        2.1252656809    0   0   1
Al            2.5000000000        2.5000000000        2.1252657186    0   0   1



     Writing output data file ./tmp/Al.save/
     NEW-OLD atomic charge density approx. for the potential

     negative rho (up, down):  1.083E-04 0.000E+00

     total cpu time spent up to now is      540.1 secs

     Self-consistent Calculation

     iteration #  1     ecut=    20.00 Ry     beta= 0.50
     Davidson diagonalization with overlap
     ethr =  1.00E-06,  avg # of iterations =  3.0

     Threshold (ethr) on eigenvalues was too large:
     Diagonalizing with lowered threshold

     Davidson diagonalization with overlap
     ethr =  2.41E-08,  avg # of iterations =  6.9

     negative rho (up, down):  1.078E-04 0.000E+00

     total cpu time spent up to now is      569.0 secs

     total energy              =   -1421.44355240 Ry
     estimated scf accuracy    <       0.00004247 Ry

     iteration #  2     ecut=    20.00 Ry     beta= 0.50
     Davidson diagonalization with overlap
     ethr =  3.93E-08,  avg # of iterations =  1.0

     negative rho (up, down):  1.119E-04 0.000E+00

     total cpu time spent up to now is      578.0 secs

     total energy              =   -1421.44354771 Ry
     estimated scf accuracy    <       0.00001780 Ry

     iteration #  3     ecut=    20.00 Ry     beta= 0.50
     Davidson diagonalization with overlap
     ethr =  1.65E-08,  avg # of iterations =  5.8

     negative rho (up, down):  1.128E-04 0.000E+00

     total cpu time spent up to now is      591.7 secs

     total energy              =   -1421.44355121 Ry
     estimated scf accuracy    <       0.00000080 Ry

     iteration #  4     ecut=    20.00 Ry     beta= 0.50
     Davidson diagonalization with overlap
     ethr =  7.44E-10,  avg # of iterations =  5.9

     negative rho (up, down):  1.117E-04 0.000E+00

     total cpu time spent up to now is      606.7 secs

     total energy              =   -1421.44355144 Ry
     estimated scf accuracy    <       0.00000059 Ry

     iteration #  5     ecut=    20.00 Ry     beta= 0.50
     Davidson diagonalization with overlap
     ethr =  5.49E-10,  avg # of iterations =  1.4

     negative rho (up, down):  1.063E-04 0.000E+00

     total cpu time spent up to now is      615.8 secs

     total energy              =   -1421.44355138 Ry
     estimated scf accuracy    <       0.00000028 Ry

     iteration #  6     ecut=    20.00 Ry     beta= 0.50
     Davidson diagonalization with overlap
     ethr =  2.63E-10,  avg # of iterations =  5.5

     negative rho (up, down):  1.068E-04 0.000E+00

     total cpu time spent up to now is      629.2 secs

     total energy              =   -1421.44355146 Ry
     estimated scf accuracy    <       0.00000006 Ry

     iteration #  7     ecut=    20.00 Ry     beta= 0.50
     Davidson diagonalization with overlap
     ethr =  5.46E-11,  avg # of iterations =  4.8

     negative rho (up, down):  1.081E-04 0.000E+00

     total cpu time spent up to now is      641.3 secs

     total energy              =   -1421.44355146 Ry
     estimated scf accuracy    <       0.00000009 Ry

     iteration #  8     ecut=    20.00 Ry     beta= 0.50
     Davidson diagonalization with overlap
     ethr =  5.46E-11,  avg # of iterations =  1.4

     negative rho (up, down):  1.090E-04 0.000E+00

     total cpu time spent up to now is      650.8 secs

     total energy              =   -1421.44355145 Ry
     estimated scf accuracy    <       0.00000006 Ry

     iteration #  9     ecut=    20.00 Ry     beta= 0.50
     Davidson diagonalization with overlap
     ethr =  5.46E-11,  avg # of iterations =  1.4

     negative rho (up, down):  1.092E-04 0.000E+00

     total cpu time spent up to now is      660.1 secs

     total energy              =   -1421.44355145 Ry
     estimated scf accuracy    <       0.00000002 Ry

     iteration # 10     ecut=    20.00 Ry     beta= 0.50
     Davidson diagonalization with overlap
     ethr =  1.62E-11,  avg # of iterations =  4.4

     negative rho (up, down):  1.077E-04 0.000E+00

     total cpu time spent up to now is      671.7 secs

     End of self-consistent calculation

          k = 0.0208 0.0208 0.0000 ( 17121 PWs)   bands (ev):

   -10.5906  -9.2000  -8.8394  -8.8394  -8.3431  -8.3431  -7.4629  -7.4629
    -7.1112  -7.0479  -6.9706  -6.9706  -6.6220  -6.6220  -6.1352  -5.7481
    -5.3300  -5.3300  -5.2631  -5.2631  -4.8434  -4.8434  -4.7806  -4.2042
    -3.6346  -3.2360  -3.2360  -3.1553  -3.1553  -2.6791  -2.5274  -2.5274
    -2.2578  -2.2578  -2.0267  -2.0267  -1.9027  -1.9027  -1.8841  -1.7769
    -1.7769  -1.7092  -1.2462  -0.9754  -0.9754  -0.8533  -0.4759  -0.4759
    -0.4239  -0.3966  -0.3966  -0.3448  -0.2275  -0.2275   0.0392   0.1684
     0.2049   0.2049   0.2063   0.2063   0.2282   0.2937   0.2937   1.0610
     1.1224

          k = 0.0208 0.0625 0.0000 ( 17086 PWs)   bands (ev):

   -10.5277  -9.2751  -9.1376  -8.7773  -8.2812  -7.8951  -7.7869  -7.5410
    -7.4012  -7.0498  -6.9861  -6.9092  -6.4193  -6.1744  -6.0743  -5.7573
    -5.6874  -5.5908  -5.2689  -4.7826  -4.7205  -4.2985  -4.2413  -4.1428
    -4.1307  -4.0559  -3.5746  -3.1778  -2.9276  -2.7911  -2.6197  -2.5448
    -2.4676  -2.2000  -2.1846  -2.1471  -2.0751  -1.9664  -1.8450  -1.8256
    -1.5334  -1.3078  -1.2774  -1.2277  -1.1934  -0.9188  -0.8831  -0.7798
    -0.7595  -0.6818  -0.6317  -0.1958  -0.1695   0.0446   0.0710   0.0959
     0.2615   0.2643   0.6295   0.6725   0.6929   0.7995   0.8775   0.9479
     1.1425

          k = 0.0208 0.1042 0.0000 ( 17104 PWs)   bands (ev):

   -10.4020  -9.6498  -9.0129  -8.6531  -8.2667  -8.1576  -7.9106  -7.4179
    -7.2780  -7.1715  -6.8627  -6.7864  -6.5411  -6.1248  -6.0525  -5.8118
    -5.4696  -5.1470  -4.9905  -4.9706  -4.6612  -4.4184  -4.1243  -4.0203
    -3.9355  -3.6984  -3.6498  -3.6253  -3.3307  -3.2891  -3.0620  -2.8961
    -2.3866  -2.3484  -2.0859  -2.0429  -1.9921  -1.8459  -1.7302  -1.7088
    -1.6401  -1.6073  -1.5992  -1.5431  -1.4461  -1.1303  -1.0635  -1.0133
    -0.8069  -0.7945  -0.2340  -0.1825  -0.0540   0.0060   0.2728   0.3735
     0.3806   0.4429   0.6278   0.7699   0.9229   1.0185   1.0714   1.0954
     1.2457

          k = 0.0208 0.1458 0.0000 ( 17039 PWs)   bands (ev):

   -10.2135  -9.9627  -8.8259  -8.5771  -8.4671  -8.2195  -7.9722  -7.7255
    -7.0934  -6.8476  -6.6778  -6.6025  -6.4982  -6.4318  -6.3577  -5.7714
    -5.1302  -4.9644  -4.8102  -4.7214  -4.4792  -4.4091  -4.3377  -4.2372
    -4.1025  -3.8367  -3.6413  -3.5928  -3.4566  -3.0383  -2.9907  -2.8896
    -2.7560  -2.6628  -2.3304  -2.3028  -2.1701  -1.9333  -1.9173  -1.6995
    -1.6658  -1.5594  -1.5338  -1.4267  -1.3856  -1.3351  -1.3013  -0.9260
    -0.6979  -0.6416  -0.4286  -0.2519  -0.2067   0.1186   0.3471   0.4431
     0.5399   0.5546   0.7571   0.7859   0.8426   0.8826   1.3616   1.4444
     1.5499

          k = 0.0625 0.0625 0.0000 ( 17074 PWs)   bands (ev):

   -10.4648  -9.2128  -9.2128  -9.0752  -7.9723  -7.8333  -7.8333  -7.7253
    -7.7253  -6.9244  -6.6023  -6.4997  -6.4997  -6.3581  -6.3581  -5.6961
    -5.6961  -5.1423  -5.1423  -5.0508  -4.4788  -4.2379  -4.2379  -4.0815
    -4.0715  -4.0715  -3.7068  -3.0361  -3.0360  -2.9181  -2.9181  -2.8669
    -2.8669  -2.7324  -2.7324  -2.0561  -1.7672  -1.6668  -1.6207  -1.5926
    -1.5926  -1.4733  -1.4733  -1.2230  -1.2230  -0.7710  -0.6668  -0.6619
    -0.6231  -0.6231  -0.5743  -0.5743  -0.2885  -0.2885   0.1242   0.1242
     0.5277   0.5277   0.5432   0.6188   0.7132   0.7308   0.7308   0.8030
     1.1279

          k = 0.0625 0.1042 0.0000 ( 17072 PWs)   bands (ev):

   -10.3391  -9.5872  -9.0882  -8.9505  -8.3433  -8.2047  -7.7096  -7.6021
    -7.1102  -6.9703  -6.8659  -6.8010  -6.2359  -6.0634  -5.8919  -5.7509
    -5.5738  -5.5054  -4.9106  -4.8426  -4.5428  -4.4572  -4.1170  -3.9590
    -3.9534  -3.7295  -3.6376  -3.5664  -3.3948  -3.2555  -3.2282  -3.1220
    -2.7459  -2.6153  -2.4749  -2.4473  -2.3934  -2.0239  -1.9249  -1.6503
    -1.5481  -1.3534  -1.1789  -1.1162  -1.0398  -0.9547  -0.7358  -0.6393
    -0.6051  -0.5058  -0.4793  -0.4600  -0.3852  -0.1837   0.1958   0.2099
     0.2280   0.4125   0.7044   0.8414   0.8474   0.8588   0.9811   1.1440
     1.4281

          k = 0.0625 0.1458 0.0000 ( 17067 PWs)   bands (ev):

   -10.1508  -9.9001  -8.9016  -8.7637  -8.6532  -8.5150  -7.5244  -7.4176
    -7.2778  -7.1720  -6.6162  -6.4372  -6.3702  -6.0528  -5.8091  -5.7109
    -5.3906  -5.2280  -5.1467  -5.0696  -4.5138  -4.3489  -3.9359  -3.8698
    -3.8160  -3.7770  -3.7755  -3.6950  -3.5435  -3.5317  -3.1620  -3.1433
    -2.9785  -2.5647  -2.4791  -2.4406  -2.3237  -2.2711  -2.2095  -1.8177
    -1.7936  -1.4753  -1.2428  -1.1739  -1.0983  -0.9618  -0.9354  -0.7743
    -0.4222  -0.3300  -0.2897  -0.1481  -0.0959  -0.0652   0.0487   0.2269
     0.3768   0.5013   0.5542   0.6965   0.8859   0.9998   1.0220   1.2540
     1.4396

          k = 0.1042 0.1042 0.0000 ( 17034 PWs)   bands (ev):

   -10.2135  -9.4623  -9.4623  -8.8259  -8.7153  -8.0807  -8.0807  -7.3394
    -6.9877  -6.9877  -6.6778  -6.2557  -6.2557  -5.9407  -5.9407  -5.6294
    -5.6294  -5.2076  -4.9034  -4.9034  -4.7908  -4.7908  -4.0791  -4.0791
    -3.8752  -3.8366  -3.5165  -3.5165  -3.4485  -3.4485  -3.1067  -3.1067
    -2.7995  -2.7995  -2.7428  -2.7428  -2.5477  -2.3819  -2.2873  -1.5334
    -1.4300  -1.4300  -1.0023  -0.9009  -0.8376  -0.8376  -0.7289  -0.7289
    -0.6186  -0.6186  -0.4835  -0.1398  -0.0873  -0.0873   0.0297   0.0752
     0.0752   0.3938   0.7677   1.0124   1.0974   1.0974   1.2363   1.2363
     1.3149

          k = 0.1042 0.1458 0.0000 ( 17050 PWs)   bands (ev):

   -10.0253  -9.7748  -9.2752  -9.0261  -8.6392  -8.3908  -7.8950  -7.6478
    -6.8042  -6.5600  -6.4931  -6.3155  -6.2474  -5.7570  -5.5902  -5.5887
    -5.5125  -5.4473  -5.2051  -4.9486  -4.8702  -4.6117  -4.3740  -4.2289
    -4.2272  -3.6533  -3.5146  -3.4098  -3.3356  -3.2717  -3.2584  -3.0962
    -3.0362  -2.9247  -2.8590  -2.6829  -2.6561  -2.1525  -2.1466  -1.9391
    -1.4465  -1.3584  -1.3523  -1.2534  -1.1259  -1.0192  -0.6624  -0.6614
    -0.4434  -0.4294  -0.2116  -0.0921  -0.0310   0.0411   0.1115   0.1507
     0.6173   0.6620   0.6751   0.7542   0.9608   1.2716   1.3027   1.3050
     1.3567

          k = 0.1458 0.1458 0.0000 ( 17054 PWs)   bands (ev):

    -9.8373  -9.5872  -9.5872  -9.3376  -8.4528  -8.2046  -8.2046  -7.9569
    -6.3088  -6.1332  -6.1332  -6.0632  -6.0632  -5.8907  -5.8907  -5.8182
    -5.4094  -5.4094  -5.1692  -5.1692  -4.7675  -4.7675  -4.5268  -4.5268
    -4.0494  -4.0494  -3.8110  -3.8110  -3.4704  -3.2273  -3.2273  -2.9847
    -2.7133  -2.6802  -2.6802  -2.4425  -2.4425  -2.4030  -1.9751  -1.9751
    -1.7395  -1.7395  -1.4229  -1.1833  -1.1181  -1.0276  -0.9508  -0.9508
    -0.7474  -0.7181   0.1438   0.1438   0.3754   0.3754   0.3891   0.6311
     0.6708   0.7907   0.7907   0.8429   0.8969   1.0182   1.0182   1.0205
     1.0205

     the Fermi energy is     0.0577 ev

!    total energy              =   -1421.44355145 Ry

     total all-electron energy =    -17482.583688 Ry
     estimated scf accuracy    <          1.8E-09 Ry
     smearing contrib. (-TS)   =      -0.00111610 Ry
     internal energy E=F+TS    =   -1421.44243535 Ry

     The total energy is F=E-TS. E is the sum of the following terms:
     one-electron contribution =   -1565.48468264 Ry
     hartree contribution      =     808.86881197 Ry
     xc contribution           =     -91.30393271 Ry
     ewald contribution        =     674.92217308 Ry
     one-center paw contrib.   =   -1248.44480505 Ry

     convergence has been achieved in  10 iterations

     negative rho (up, down):  1.077E-04 0.000E+00

     Forces acting on atoms (cartesian axes, Ry/au):

     atom    1 type  1   force =     0.00000000    0.00000000   -0.00562465
     atom    2 type  1   force =     0.00000000    0.00000060   -0.00562454
     atom    3 type  1   force =     0.00000000   -0.00000060   -0.00562454
     atom    4 type  1   force =     0.00000060    0.00000000   -0.00562454
     atom    5 type  1   force =    -0.00000032   -0.00000032   -0.00562462
     atom    6 type  1   force =    -0.00000032    0.00000032   -0.00562462
     atom    7 type  1   force =    -0.00000060    0.00000000   -0.00562454
     atom    8 type  1   force =     0.00000032   -0.00000032   -0.00562462
     atom    9 type  1   force =     0.00000032    0.00000032   -0.00562462
     atom   10 type  1   force =     0.00000044    0.00000044    0.00062568
     atom   11 type  1   force =    -0.00000091    0.00000000    0.00062606
     atom   12 type  1   force =     0.00000044   -0.00000044    0.00062568
     atom   13 type  1   force =     0.00000000   -0.00000091    0.00062606
     atom   14 type  1   force =     0.00000000    0.00000000    0.00062526
     atom   15 type  1   force =     0.00000000    0.00000091    0.00062606
     atom   16 type  1   force =    -0.00000044    0.00000044    0.00062568
     atom   17 type  1   force =     0.00000091    0.00000000    0.00062606
     atom   18 type  1   force =    -0.00000044   -0.00000044    0.00062568
     atom   19 type  1   force =     0.00000000    0.00000000    0.00049956
     atom   20 type  1   force =     0.00000000    0.00000090    0.00049891
     atom   21 type  1   force =     0.00000000   -0.00000090    0.00049891
     atom   22 type  1   force =     0.00000090    0.00000000    0.00049891
     atom   23 type  1   force =    -0.00000044   -0.00000044    0.00049925
     atom   24 type  1   force =    -0.00000044    0.00000044    0.00049925
     atom   25 type  1   force =    -0.00000090    0.00000000    0.00049891
     atom   26 type  1   force =     0.00000044   -0.00000044    0.00049925
     atom   27 type  1   force =     0.00000044    0.00000044    0.00049925
     atom   28 type  1   force =     0.00000033    0.00000033    0.00449969
     atom   29 type  1   force =    -0.00000063    0.00000000    0.00449960
     atom   30 type  1   force =     0.00000033   -0.00000033    0.00449969
     atom   31 type  1   force =     0.00000000   -0.00000063    0.00449960
     atom   32 type  1   force =     0.00000000    0.00000000    0.00449970
     atom   33 type  1   force =     0.00000000    0.00000063    0.00449960
     atom   34 type  1   force =    -0.00000033    0.00000033    0.00449969
     atom   35 type  1   force =     0.00000063    0.00000000    0.00449960
     atom   36 type  1   force =    -0.00000033   -0.00000033    0.00449969

     Total force =     0.013582     Total SCF correction =     0.000050
     Energy error            =      4.0E-04
     Gradient error          =      4.5E-03

     number of scf cycles    =   4
     number of bfgs steps    =   3

     energy   old            =   -1421.4431499143 Ry
     energy   new            =   -1421.4435514514 Ry

     CASE: energy  _new < energy  _old

     new trust radius        =       0.0140473542 bohr
     new conv_thr            =       0.0000000040 Ry


ATOMIC_POSITIONS (alat)
Al            0.0000000000        0.0000000000        0.0000000000    0   0   0
Al            0.0000000000        0.9999999999        0.0000000000    0   0   0
Al            0.0000000000        1.9999999998        0.0000000000    0   0   0
Al            0.9999999999        0.0000000000        0.0000000000    0   0   0
Al            0.9999999999        0.9999999999        0.0000000000    0   0   0
Al            0.9999999999        1.9999999998        0.0000000000    0   0   0
Al            1.9999999998        0.0000000000        0.0000000000    0   0   0
Al            1.9999999998        0.9999999999        0.0000000000    0   0   0
Al            1.9999999998        1.9999999998        0.0000000000    0   0   0
Al            0.5000000000        0.5000000000        0.7071067689    0   0   0
[...]
Al            1.4999999965        1.4999999965        2.1566273052    0   0   1
Al            1.4999999965        2.4999999941        2.1566250477    0   0   1
Al            2.4999999941        0.4999999988        2.1566262357    0   0   1
Al            2.4999999941        1.4999999965        2.1566250477    0   0   1
Al            2.4999999941        2.4999999941        2.1566262357    0   0   1



     Writing output data file ./tmp/Al.save/
     NEW-OLD atomic charge density approx. for the potential

     negative rho (up, down):  1.035E-04 0.000E+00

     total cpu time spent up to now is     2099.8 secs

     Self-consistent Calculation

     iteration #  1     ecut=    20.00 Ry     beta= 0.50
     Davidson diagonalization with overlap
     ethr =  1.00E-06,  avg # of iterations =  2.0

     Threshold (ethr) on eigenvalues was too large:
     Diagonalizing with lowered threshold

     Davidson diagonalization with overlap
     ethr =  3.49E-09,  avg # of iterations =  5.4

     negative rho (up, down):  1.028E-04 0.000E+00

     total cpu time spent up to now is     2127.9 secs

     total energy              =   -1421.44712283 Ry
     estimated scf accuracy    <       0.00000215 Ry

     iteration #  2     ecut=    20.00 Ry     beta= 0.50
     Davidson diagonalization with overlap
     ethr =  1.99E-09,  avg # of iterations =  1.4

     negative rho (up, down):  1.033E-04 0.000E+00

     total cpu time spent up to now is     2138.0 secs

     total energy              =   -1421.44712256 Ry
     estimated scf accuracy    <       0.00000111 Ry

     iteration #  3     ecut=    20.00 Ry     beta= 0.50
     Davidson diagonalization with overlap
     ethr =  1.03E-09,  avg # of iterations =  4.2

     negative rho (up, down):  1.036E-04 0.000E+00

     total cpu time spent up to now is     2151.0 secs

     total energy              =   -1421.44712277 Ry
     estimated scf accuracy    <       0.00000010 Ry

     iteration #  4     ecut=    20.00 Ry     beta= 0.50
     Davidson diagonalization with overlap
     ethr =  9.10E-11,  avg # of iterations =  5.5

     negative rho (up, down):  1.037E-04 0.000E+00

     total cpu time spent up to now is     2165.0 secs

     total energy              =   -1421.44712280 Ry
     estimated scf accuracy    <       0.00000002 Ry

     iteration #  5     ecut=    20.00 Ry     beta= 0.50
     Davidson diagonalization with overlap
     ethr =  2.12E-11,  avg # of iterations =  5.3

     negative rho (up, down):  1.034E-04 0.000E+00

     total cpu time spent up to now is     2179.3 secs

     total energy              =   -1421.44712279 Ry
     estimated scf accuracy    <       0.00000006 Ry

     iteration #  6     ecut=    20.00 Ry     beta= 0.50
     Davidson diagonalization with overlap
     ethr =  2.12E-11,  avg # of iterations =  2.6

     negative rho (up, down):  1.032E-04 0.000E+00

     total cpu time spent up to now is     2190.7 secs

     total energy              =   -1421.44712280 Ry
     estimated scf accuracy    <       0.00000001 Ry

     iteration #  7     ecut=    20.00 Ry     beta= 0.50
     Davidson diagonalization with overlap
     ethr =  1.14E-11,  avg # of iterations =  2.1

     negative rho (up, down):  1.031E-04 0.000E+00

     total cpu time spent up to now is     2201.0 secs

     total energy              =   -1421.44712280 Ry
     estimated scf accuracy    <          5.2E-09 Ry

     iteration #  8     ecut=    20.00 Ry     beta= 0.50
     Davidson diagonalization with overlap
     ethr =  4.80E-12,  avg # of iterations =  5.0

     negative rho (up, down):  1.035E-04 0.000E+00

     total cpu time spent up to now is     2213.3 secs

     End of self-consistent calculation

          k = 0.0208 0.0208 0.0000 ( 17121 PWs)   bands (ev):

   -10.4748  -9.1501  -8.7234  -8.7234  -8.2269  -8.2269  -7.4123  -7.4123
    -7.0250  -6.9945  -6.9198  -6.9198  -6.5051  -6.5051  -6.0180  -5.6966
    -5.3059  -5.3059  -5.2112  -5.2112  -4.8190  -4.8190  -4.7284  -4.2516
    -3.6089  -3.1291  -3.1291  -3.1166  -3.1166  -2.6523  -2.5579  -2.5579
    -2.1542  -2.1542  -2.0724  -2.0724  -1.9307  -1.8497  -1.8497  -1.6556
    -1.6556  -1.5872  -1.1240  -0.9243  -0.9243  -0.8880  -0.4263  -0.4263
    -0.4197  -0.4197  -0.3679  -0.2698  -0.2698  -0.2350   0.0953   0.1294
     0.1626   0.1626   0.2294   0.2294   0.3328   0.3937   0.3937   1.1108
     1.1472

          k = 0.0208 0.0625 0.0000 ( 17086 PWs)   bands (ev):

   -10.4119  -9.1592  -9.0877  -8.6612  -8.1650  -7.8447  -7.6705  -7.4245
    -7.3506  -6.9632  -6.9331  -6.8583  -6.3681  -6.1232  -5.9570  -5.7336
    -5.6358  -5.4732  -5.2448  -4.7582  -4.6681  -4.2738  -4.1901  -4.1886
    -4.0306  -4.0128  -3.5488  -3.0584  -2.9722  -2.7386  -2.5929  -2.4977
    -2.4250  -2.1198  -2.0969  -2.0636  -2.0121  -1.9545  -1.8721  -1.7920
    -1.5706  -1.3060  -1.1740  -1.1597  -1.1155  -0.8676  -0.8283  -0.8215
    -0.7222  -0.7054  -0.6153  -0.2117  -0.0766   0.0732   0.0994   0.1199
     0.2209   0.2860   0.5879   0.6313   0.7970   0.8982   0.9095   0.9128
     1.2570

          k = 0.0208 0.1042 0.0000 ( 17104 PWs)   bands (ev):

   -10.2862  -9.5339  -8.9629  -8.5370  -8.2165  -8.0413  -7.7943  -7.3014
    -7.2273  -7.0549  -6.8397  -6.7355  -6.4900  -6.1013  -6.0011  -5.7593
    -5.3520  -5.1228  -4.8725  -4.8545  -4.6366  -4.3934  -4.0705  -4.0674
    -3.9101  -3.6767  -3.5957  -3.5696  -3.3350  -3.2131  -2.9425  -2.7777
    -2.3774  -2.2664  -2.0039  -1.9834  -1.9504  -1.8915  -1.7550  -1.6771
    -1.6605  -1.5821  -1.5469  -1.5133  -1.3495  -1.1742  -1.0577  -1.0098
    -0.8401  -0.7555  -0.1293  -0.1147  -0.0961   0.0346   0.3375   0.3834
     0.3982   0.4834   0.5869   0.7455   0.8837   1.0301   1.0458   1.1482
     1.3427

          k = 0.0208 0.1458 0.0000 ( 17039 PWs)   bands (ev):

   -10.0977  -9.8469  -8.7759  -8.5270  -8.3509  -8.1032  -7.8559  -7.6091
    -7.0426  -6.7967  -6.6547  -6.5514  -6.4085  -6.3812  -6.3065  -5.6533
    -5.0800  -4.9400  -4.6968  -4.6920  -4.4544  -4.3581  -4.2191  -4.2121
    -3.9832  -3.8836  -3.6393  -3.5216  -3.4049  -3.0118  -2.9383  -2.7699
    -2.7031  -2.5428  -2.3030  -2.2493  -2.1975  -1.9583  -1.8159  -1.7111
    -1.5998  -1.5797  -1.5062  -1.4716  -1.3577  -1.3467  -1.2818  -0.8973
    -0.6686  -0.5899  -0.3764  -0.2542  -0.2216   0.0767   0.3055   0.3980
     0.5119   0.5650   0.7437   0.7830   0.9611   1.0039   1.3331   1.4706
     1.6736

          k = 0.0625 0.0625 0.0000 ( 17074 PWs)   bands (ev):

   -10.3490  -9.0968  -9.0968  -9.0253  -7.8560  -7.7828  -7.7828  -7.6089
    -7.6089  -6.9014  -6.5513  -6.3827  -6.3827  -6.3068  -6.3068  -5.6723
    -5.6723  -5.0902  -5.0902  -4.9328  -4.4539  -4.2132  -4.2132  -4.1287
    -3.9535  -3.9535  -3.6536  -3.0098  -3.0098  -2.9114  -2.9114  -2.7988
    -2.7988  -2.6799  -2.6799  -1.9344  -1.8135  -1.7090  -1.5922  -1.5394
    -1.5394  -1.5105  -1.5105  -1.1052  -1.1052  -0.7150  -0.6634  -0.6634
    -0.5577  -0.5577  -0.5443  -0.5441  -0.3232  -0.3232   0.1731   0.1731
     0.5034   0.5486   0.5486   0.6750   0.6897   0.6897   0.7647   0.9151
     1.0850

          k = 0.0625 0.1042 0.0000 ( 17072 PWs)   bands (ev):

   -10.2233  -9.4713  -8.9722  -8.9005  -8.2271  -8.1544  -7.6592  -7.4857
    -6.9935  -6.9195  -6.7780  -6.7491  -6.1845  -6.0398  -5.7745  -5.6984
    -5.5499  -5.4536  -4.8181  -4.7944  -4.4893  -4.3388  -4.0921  -4.0060
    -3.8352  -3.6157  -3.6124  -3.5108  -3.3690  -3.2740  -3.1367  -3.0675
    -2.7902  -2.5627  -2.4150  -2.3551  -2.3461  -2.0671  -1.8720  -1.6964
    -1.5228  -1.3904  -1.1224  -1.0118  -0.9990  -0.9982  -0.7814  -0.6755
    -0.5460  -0.4845  -0.4432  -0.3610  -0.3578  -0.0642   0.1562   0.2289
     0.2772   0.3703   0.7569   0.8065   0.8746   0.9184   0.9419   1.1969
     1.5432

          k = 0.0625 0.1458 0.0000 ( 17067 PWs)   bands (ev):

   -10.0350  -9.7842  -8.7856  -8.7136  -8.5370  -8.4649  -7.4739  -7.3011
    -7.2272  -7.0554  -6.5931  -6.3469  -6.3202  -6.0013  -5.7575  -5.5928
    -5.3665  -5.1224  -5.1101  -5.0194  -4.3948  -4.2979  -3.9108  -3.8223
    -3.8185  -3.6969  -3.6695  -3.6587  -3.5781  -3.4250  -3.1096  -3.0231
    -2.9520  -2.6087  -2.4258  -2.3879  -2.3674  -2.2436  -2.1568  -1.7662
    -1.7632  -1.5211  -1.2881  -1.2108  -1.0697  -0.9721  -0.8434  -0.6552
    -0.3922  -0.3700  -0.2725  -0.1955  -0.1357  -0.0473   0.1650   0.2622
     0.4264   0.4561   0.6048   0.8193   0.9556   0.9814   1.0048   1.2139
     1.4866

          k = 0.1042 0.1042 0.0000 ( 17034 PWs)   bands (ev):

   -10.0977  -9.3464  -9.3464  -8.7759  -8.5992  -8.0304  -8.0304  -7.2888
    -6.8709  -6.8709  -6.6547  -6.1385  -6.1385  -5.9171  -5.9171  -5.5767
    -5.5767  -5.1833  -4.8502  -4.8502  -4.6746  -4.6746  -3.9623  -3.9623
    -3.8834  -3.7562  -3.4939  -3.4939  -3.3934  -3.3934  -3.1523  -3.1523
    -2.7713  -2.7713  -2.6922  -2.6922  -2.4928  -2.4264  -2.1657  -1.5793
    -1.4046  -1.4046  -0.9464  -0.8819  -0.8819  -0.7851  -0.7024  -0.7024
    -0.6641  -0.6641  -0.4513  -0.1827   0.0309   0.0309   0.0325   0.0325
     0.1526   0.4717   0.8558   1.0485   1.0583   1.0583   1.2895   1.2895
     1.3712

          k = 0.1042 0.1458 0.0000 ( 17050 PWs)   bands (ev):

    -9.9095  -9.6589  -9.1592  -8.9100  -8.5891  -8.3406  -7.8446  -7.5973
    -6.6873  -6.4699  -6.4430  -6.2240  -6.1983  -5.7332  -5.4885  -5.4719
    -5.4711  -5.3946  -5.1522  -4.8983  -4.7514  -4.4954  -4.2575  -4.1778
    -4.1762  -3.6999  -3.4626  -3.4560  -3.3120  -3.2174  -3.1387  -3.0707
    -2.9833  -2.9701  -2.8324  -2.7279  -2.5352  -2.1249  -2.1195  -1.8838
    -1.4182  -1.4040  -1.2967  -1.2277  -1.1710  -0.9931  -0.7064  -0.5442
    -0.4888  -0.4729  -0.2566  -0.0784   0.0275   0.1477   0.1614   0.2723
     0.5723   0.6159   0.7101   0.7980   1.0806   1.2327   1.2609   1.3533
     1.4105

          k = 0.1458 0.1458 0.0000 ( 17054 PWs)   bands (ev):

    -9.7215  -9.4713  -9.4713  -9.2216  -8.4027  -8.1543  -8.1543  -7.9065
    -6.2854  -6.0397  -6.0397  -6.0160  -6.0160  -5.7945  -5.7733  -5.7733
    -5.2911  -5.2911  -5.0507  -5.0506  -4.7170  -4.7170  -4.4760  -4.4760
    -3.9980  -3.9980  -3.7593  -3.7593  -3.5168  -3.2733  -3.2733  -3.0303
    -2.6535  -2.6535  -2.5927  -2.4156  -2.4156  -2.2815  -1.9473  -1.9473
    -1.7115  -1.7115  -1.3635  -1.2286  -1.0621  -0.9956  -0.9956  -0.9142
    -0.7624  -0.6243   0.0966   0.0966   0.3286   0.3286   0.4377   0.6609
     0.7219   0.7458   0.7458   0.9330   0.9661   0.9759   0.9759   1.1398
     1.1398

     the Fermi energy is     0.0777 ev

!    total energy              =   -1421.44712280 Ry

     total all-electron energy =    -17482.587260 Ry
     estimated scf accuracy    <          7.2E-10 Ry
     smearing contrib. (-TS)   =      -0.00134218 Ry
     internal energy E=F+TS    =   -1421.44578062 Ry

     The total energy is F=E-TS. E is the sum of the following terms:
     one-electron contribution =   -1539.67161674 Ry
     hartree contribution      =     796.01179426 Ry
     xc contribution           =     -91.10086150 Ry
     ewald contribution        =     661.72892461 Ry
     one-center paw contrib.   =   -1248.41402124 Ry

     convergence has been achieved in   8 iterations

     negative rho (up, down):  1.035E-04 0.000E+00

     Forces acting on atoms (cartesian axes, Ry/au):

     atom    1 type  1   force =     0.00000000    0.00000000   -0.00518985
     atom    2 type  1   force =     0.00000000    0.00000057   -0.00518977
     atom    3 type  1   force =     0.00000000   -0.00000057   -0.00518977
     atom    4 type  1   force =     0.00000057    0.00000000   -0.00518977
     atom    5 type  1   force =    -0.00000028   -0.00000028   -0.00518985
     atom    6 type  1   force =    -0.00000028    0.00000028   -0.00518985
     atom    7 type  1   force =    -0.00000057    0.00000000   -0.00518977
     atom    8 type  1   force =     0.00000028   -0.00000028   -0.00518985
     atom    9 type  1   force =     0.00000028    0.00000028   -0.00518985
     atom   10 type  1   force =     0.00000021    0.00000021    0.00518093
     atom   11 type  1   force =    -0.00000096    0.00000000    0.00518099
     atom   12 type  1   force =     0.00000021   -0.00000021    0.00518093
     atom   13 type  1   force =     0.00000000   -0.00000096    0.00518099
     atom   14 type  1   force =     0.00000000    0.00000000    0.00518024
     atom   15 type  1   force =     0.00000000    0.00000096    0.00518099
     atom   16 type  1   force =    -0.00000021    0.00000021    0.00518093
     atom   17 type  1   force =     0.00000096    0.00000000    0.00518099
     atom   18 type  1   force =    -0.00000021   -0.00000021    0.00518093
     atom   19 type  1   force =     0.00000000    0.00000000    0.00001996
     atom   20 type  1   force =     0.00000000    0.00000072    0.00002066
     atom   21 type  1   force =     0.00000000   -0.00000072    0.00002066
     atom   22 type  1   force =     0.00000072    0.00000000    0.00002066
     atom   23 type  1   force =    -0.00000038   -0.00000038    0.00002156
     atom   24 type  1   force =    -0.00000038    0.00000038    0.00002156
     atom   25 type  1   force =    -0.00000072    0.00000000    0.00002066
     atom   26 type  1   force =     0.00000038   -0.00000038    0.00002156
     atom   27 type  1   force =     0.00000038    0.00000038    0.00002156
     atom   28 type  1   force =     0.00000052    0.00000052   -0.00001198
     atom   29 type  1   force =    -0.00000049    0.00000000   -0.00001199
     atom   30 type  1   force =     0.00000052   -0.00000052   -0.00001198
     atom   31 type  1   force =     0.00000000   -0.00000049   -0.00001199
     atom   32 type  1   force =     0.00000000    0.00000000   -0.00001258
     atom   33 type  1   force =     0.00000000    0.00000049   -0.00001199
     atom   34 type  1   force =    -0.00000052    0.00000052   -0.00001198
     atom   35 type  1   force =     0.00000049    0.00000000   -0.00001199
     atom   36 type  1   force =    -0.00000052   -0.00000052   -0.00001198

     Total force =     0.000073     Total SCF correction =     0.000015
     SCF correction compared to forces is large: reduce conv_thr to get better values
     Energy error            =      7.1E-07
     Gradient error          =      2.2E-05

     bfgs converged in  10 scf cycles and   9 bfgs steps
     (criteria: energy <  1.0E-04 Ry, force <  1.0E-03 Ry/Bohr)

     End of BFGS Geometry Optimization

     Final energy   =   -1421.4471227954 Ry

     File ./tmp/Al.bfgs deleted, as requested
Begin final coordinates

ATOMIC_POSITIONS (alat)
Al            0.0000000000        0.0000000000        0.0000000000    0   0   0
Al            0.0000000000        0.9999999976        0.0000000000    0   0   0
Al            0.0000000000        1.9999999953        0.0000000000    0   0   0
Al            0.9999999976        0.0000000000        0.0000000000    0   0   0
Al            0.9999999976        0.9999999976        0.0000000000    0   0   0
Al            0.9999999976        1.9999999953        0.0000000000    0   0   0
Al            1.9999999953        0.0000000000        0.0000000000    0   0   0
Al            1.9999999953        0.9999999976        0.0000000000    0   0   0
Al            1.9999999953        1.9999999953        0.0000000000    0   0   0
Al            0.4999999988        0.4999999988        0.7071067673    0   0   0
Al            0.4999999988        1.4999999965        0.7071067673    0   0   0
Al            0.4999999988        2.4999999941        0.7071067673    0   0   0
Al            1.4999999965        0.4999999988        0.7071067673    0   0   0
Al            1.4999999965        1.4999999965        0.7071067673    0   0   0
Al            1.4999999965        2.4999999941        0.7071067673    0   0   0
Al            2.4999999941        0.4999999988        0.7071067673    0   0   0
Al            2.4999999941        1.4999999965        0.7071067673    0   0   0
Al            2.4999999941        2.4999999941        0.7071067673    0   0   0
Al            0.0000000000        0.0000000000        1.4307627046    0   0   1
Al            0.0000000000        0.9999999976        1.4307591089    0   0   1
Al            0.0000000000        1.9999999953        1.4307591089    0   0   1
Al            0.9999999976        0.0000000000        1.4307591089    0   0   1
Al            0.9999999976        0.9999999976        1.4307581502    0   0   1
Al            0.9999999976        1.9999999953        1.4307581502    0   0   1
Al            1.9999999953        0.0000000000        1.4307591089    0   0   1
Al            1.9999999953        0.9999999976        1.4307581502    0   0   1
Al            1.9999999953        1.9999999953        1.4307581502    0   0   1
Al            0.4999999988        0.4999999988        2.1566262357    0   0   1
Al            0.4999999988        1.4999999965        2.1566250477    0   0   1
Al            0.4999999988        2.4999999941        2.1566262357    0   0   1
Al            1.4999999965        0.4999999988        2.1566250477    0   0   1
Al            1.4999999965        1.4999999965        2.1566273052    0   0   1
Al            1.4999999965        2.4999999941        2.1566250477    0   0   1
Al            2.4999999941        0.4999999988        2.1566262357    0   0   1
Al            2.4999999941        1.4999999965        2.1566250477    0   0   1
Al            2.4999999941        2.4999999941        2.1566262357    0   0   1
End final coordinates



     Writing output data file ./tmp/Al.save/

     init_run     :      5.99s CPU      6.41s WALL (       1 calls)
     electrons    :   1950.47s CPU   2144.41s WALL (      10 calls)
     update_pot   :      8.37s CPU      8.82s WALL (       9 calls)
     forces       :     37.33s CPU     41.79s WALL (      10 calls)

     Called by init_run:
     wfcinit      :      4.86s CPU      5.05s WALL (       1 calls)
     potinit      :      0.61s CPU      0.65s WALL (       1 calls)
     hinit0       :      0.14s CPU      0.14s WALL (       1 calls)

     Called by electrons:
     c_bands      :   1454.21s CPU   1589.71s WALL (     149 calls)
     sum_band     :    260.29s CPU    295.99s WALL (     149 calls)
     v_of_rho     :     16.14s CPU     17.93s WALL (     154 calls)
     newd         :     47.74s CPU     62.53s WALL (     154 calls)
     PAW_pot      :    107.05s CPU    111.01s WALL (     163 calls)
     mix_rho      :     78.84s CPU     82.14s WALL (     149 calls)

     Called by c_bands:
     init_us_2    :     25.99s CPU     27.25s WALL (    3180 calls)
     cegterg      :   1370.99s CPU   1503.17s WALL (    1490 calls)

     Called by *egterg:
     cdiaghg      :     28.23s CPU     32.67s WALL (    7117 calls)
     h_psi        :    822.95s CPU    897.52s WALL (    7267 calls)
     s_psi        :    168.02s CPU    190.78s WALL (    7267 calls)
     g_psi        :      1.47s CPU      1.54s WALL (    5767 calls)

     Called by h_psi:
     h_psi:calbec :    200.91s CPU    228.05s WALL (    7267 calls)
     vloc_psi     :    438.08s CPU    459.35s WALL (    7267 calls)
     add_vuspsi   :    182.14s CPU    207.54s WALL (    7267 calls)

     General routines
     calbec       :    288.13s CPU    323.50s WALL (    9247 calls)
     fft          :     13.53s CPU     14.55s WALL (    2106 calls)
     ffts         :     47.92s CPU     49.63s WALL (   35443 calls)
     fftw         :    541.17s CPU    565.52s WALL (  601880 calls)
     interpolate  :      1.27s CPU      1.45s WALL (     154 calls)

     Parallel routines
     fft_scatt_xy :     43.79s CPU     45.70s WALL (  639429 calls)
     fft_scatt_yz :    175.73s CPU    186.78s WALL (  639429 calls)

     PWSCF        :  33m36.62s CPU  36m57.48s WALL


   This run was terminated on:  21:26:13  12May2025            

=------------------------------------------------------------------------------=
   JOB DONE.
=------------------------------------------------------------------------------=
