No protocol specified

     Program PWSCF v.7.3.1 starts on 19May2025 at 18:22:27 

     This program is part of the open-source Quantum ESPRESSO suite
     for quantum simulation of materials; please cite
         "P. Giannozzi et al., J. Phys.:Condens. Matter 21 395502 (2009);
         "P. Giannozzi et al., J. Phys.:Condens. Matter 29 465901 (2017);
         "P. Giannozzi et al., J. Chem. Phys. 152 154105 (2020);
          URL http://www.quantum-espresso.org", 
     in publications or presentations arising from this work. More details at
     http://www.quantum-espresso.org/quote

     Parallel version (MPI), running on    12 processors

     MPI processes distributed on     1 nodes
     18442 MiB available memory on the printing compute node when the environment starts

     Waiting for input...
     Reading input from standard input

     Current dimensions of program PWSCF are:
     Max number of different atomic species (ntypx) = 10
     Max number of k-points (npk) =  40000
     Max angular momentum in pseudopotentials (lmaxx) =  4
     file Al.pbe-n-kjpaw_psl.1.0.0.UPF: wavefunction(s)  3S 3P renormalized
     Found identity + (  0.0000  0.3333  0.0000) symmetry
     This is a supercell, fractional translations are disabled
     Message from routine setup:
     using ibrav=0 with symmetry is DISCOURAGED, use correct ibrav instead

     K-points division:     npool     =       3
     R & G space division:  proc/nbgrp/npool/nimage =       4
     Subspace diagonalization in iterative solution of the eigenvalue problem:
     a serial algorithm will be used


     Parallelization info
     --------------------
     sticks:   dense  smooth     PW     G-vecs:    dense   smooth      PW
     Min        1666     835    221               273036    96587   13283
     Max        1667     836    222               273039    96589   13288
     Sum        6665    3341    885              1092149   386353   53141

     Using Slab Decomposition



     bravais-lattice index     =            0
     lattice parameter (alat)  =       5.3944  a.u.
     unit-cell volume          =   11302.2493 (a.u.)^3
     number of atoms/cell      =           36
     number of atomic types    =            1
     number of electrons       =       108.00
     number of Kohn-Sham states=           65
     kinetic-energy cutoff     =      40.0000  Ry
     charge density cutoff     =     320.0000  Ry
     scf convergence threshold =      1.0E-07
     mixing beta               =       0.5000
     number of iterations used =            8  local-TF  mixing
     energy convergence thresh.=      1.0E-04
     force convergence thresh. =      1.0E-03
     Exchange-correlation= SLA  PW   PBX  PBC
                           (   1   4   3   4   0   0   0)
     nstep                     =           50


     celldm(1)=   5.394412  celldm(2)=   0.000000  celldm(3)=   0.000000
     celldm(4)=   0.000000  celldm(5)=   0.000000  celldm(6)=   0.000000

     crystal axes: (cart. coord. in units of alat)
               a(1) = (   3.000000   0.000000   0.000000 )  
               a(2) = (   0.000000   3.000000   0.000000 )  
               a(3) = (   0.000000   0.000000   8.000000 )  

     reciprocal axes: (cart. coord. in units 2 pi/alat)
               b(1) = (  0.333333  0.000000  0.000000 )  
               b(2) = (  0.000000  0.333333  0.000000 )  
               b(3) = (  0.000000  0.000000  0.125000 )  


     PseudoPot. # 1 for Al read from file:
     ../../Pseudo/Al.pbe-n-kjpaw_psl.1.0.0.UPF
     MD5 check sum: dd5adf945272da8132fc805c9e56c2d6
     Pseudo is Projector augmented-wave + core cor, Zval =  3.0
     Generated using "atomic" code by A. Dal Corso  v.5.1
     Shape of augmentation charge: PSQ
     Using radial grid of 1135 points,  6 beta functions with: 
                l(1) =   0
                l(2) =   0
                l(3) =   1
                l(4) =   1
                l(5) =   2
                l(6) =   2
     Q(r) pseudized with 0 coefficients 


     atomic species   valence    mass     pseudopotential
     Al                3.00     1.00000     Al( 1.00)

      8 Sym. Ops. (no inversion) found



   Cartesian axes

     site n.     atom                  positions (alat units)
         1        Al     tau(   1) = (   0.0000000   0.0000000   0.0000000  )
         2        Al     tau(   2) = (   0.0000000   1.0000000   0.0000000  )
         3        Al     tau(   3) = (   0.0000000   2.0000000   0.0000000  )
         4        Al     tau(   4) = (   1.0000000   0.0000000   0.0000000  )
         5        Al     tau(   5) = (   1.0000000   1.0000000   0.0000000  )
         6        Al     tau(   6) = (   1.0000000   2.0000000   0.0000000  )
         7        Al     tau(   7) = (   2.0000000   0.0000000   0.0000000  )
         8        Al     tau(   8) = (   2.0000000   1.0000000   0.0000000  )
         9        Al     tau(   9) = (   2.0000000   2.0000000   0.0000000  )
        10        Al     tau(  10) = (   0.5000000   0.5000000   0.7071068  )
        11        Al     tau(  11) = (   0.5000000   1.5000000   0.7071068  )
        12        Al     tau(  12) = (   0.5000000   2.5000000   0.7071068  )
        13        Al     tau(  13) = (   1.5000000   0.5000000   0.7071068  )
        14        Al     tau(  14) = (   1.5000000   1.5000000   0.7071068  )
        15        Al     tau(  15) = (   1.5000000   2.5000000   0.7071068  )
        16        Al     tau(  16) = (   2.5000000   0.5000000   0.7071068  )
        17        Al     tau(  17) = (   2.5000000   1.5000000   0.7071068  )
        18        Al     tau(  18) = (   2.5000000   2.5000000   0.7071068  )
        19        Al     tau(  19) = (   0.0000000   0.0000000   1.4307627  )
        20        Al     tau(  20) = (   0.0000000   1.0000000   1.4307591  )
        21        Al     tau(  21) = (   0.0000000   2.0000000   1.4307591  )
        22        Al     tau(  22) = (   1.0000000   0.0000000   1.4307591  )
        23        Al     tau(  23) = (   1.0000000   1.0000000   1.4307582  )
        24        Al     tau(  24) = (   1.0000000   2.0000000   1.4307582  )
        25        Al     tau(  25) = (   2.0000000   0.0000000   1.4307591  )
        26        Al     tau(  26) = (   2.0000000   1.0000000   1.4307582  )
        27        Al     tau(  27) = (   2.0000000   2.0000000   1.4307582  )
        28        Al     tau(  28) = (   0.5000000   0.5000000   2.1566262  )
        29        Al     tau(  29) = (   0.5000000   1.5000000   2.1566250  )
        30        Al     tau(  30) = (   0.5000000   2.5000000   2.1566262  )
        31        Al     tau(  31) = (   1.5000000   0.5000000   2.1566250  )
        32        Al     tau(  32) = (   1.5000000   1.5000000   2.1566273  )
        33        Al     tau(  33) = (   1.5000000   2.5000000   2.1566250  )
        34        Al     tau(  34) = (   2.5000000   0.5000000   2.1566262  )
        35        Al     tau(  35) = (   2.5000000   1.5000000   2.1566250  )
        36        Al     tau(  36) = (   2.5000000   2.5000000   2.1566262  )

     number of k points=     3  Marzari-Vanderbilt smearing, width (Ry)=  0.0500
                       cart. coord. in units 2pi/alat
        k(    1) = (   0.0416667   0.0416667   0.0000000), wk =   0.5000000
        k(    2) = (   0.0416667   0.1250000   0.0000000), wk =   1.0000000
        k(    3) = (   0.1250000   0.1250000   0.0000000), wk =   0.5000000

     Dense  grid:  1092149 G-vectors     FFT dimensions: (  96,  96, 250)

     Smooth grid:   386353 G-vectors     FFT dimensions: (  72,  72, 180)

     Estimated max dynamical RAM per process >     692.55 MB

     Estimated total dynamical RAM >       7.60 GB

     Initial potential from superposition of free atoms

     starting charge     107.9176, renormalised to     108.0000

     negative rho (up, down):  9.667E-05 0.000E+00
     Starting wfcs are  144 randomized atomic wfcs
     Checking if some PAW data can be deallocated... 

     total cpu time spent up to now is        5.3 secs

     Self-consistent Calculation

     iteration #  1     ecut=    40.00 Ry     beta= 0.50
     Davidson diagonalization with overlap
     ethr =  1.00E-02,  avg # of iterations =  4.0

     total cpu time spent up to now is       13.9 secs

     total energy              =   -1421.43274876 Ry
     estimated scf accuracy    <       1.73462502 Ry

     iteration #  2     ecut=    40.00 Ry     beta= 0.50
     Davidson diagonalization with overlap
     ethr =  1.61E-03,  avg # of iterations =  2.3

     total cpu time spent up to now is       20.5 secs

     total energy              =   -1421.24439227 Ry
     estimated scf accuracy    <       1.12494658 Ry

     iteration #  3     ecut=    40.00 Ry     beta= 0.50
     Davidson diagonalization with overlap
     ethr =  1.04E-03,  avg # of iterations =  2.7

     total cpu time spent up to now is       27.7 secs

     total energy              =   -1421.43261859 Ry
     estimated scf accuracy    <       0.16956095 Ry

     iteration #  4     ecut=    40.00 Ry     beta= 0.50
     Davidson diagonalization with overlap
     ethr =  1.57E-04,  avg # of iterations =  4.3

     total cpu time spent up to now is       34.9 secs

     total energy              =   -1421.46553165 Ry
     estimated scf accuracy    <       0.05330509 Ry

     iteration #  5     ecut=    40.00 Ry     beta= 0.50
     Davidson diagonalization with overlap
     ethr =  4.94E-05,  avg # of iterations =  7.7

     total cpu time spent up to now is       43.0 secs

     total energy              =   -1421.45133537 Ry
     estimated scf accuracy    <       0.08672626 Ry

     iteration #  6     ecut=    40.00 Ry     beta= 0.50
     Davidson diagonalization with overlap
     ethr =  4.94E-05,  avg # of iterations =  2.0

     total cpu time spent up to now is       49.5 secs

     total energy              =   -1421.45364341 Ry
     estimated scf accuracy    <       0.04122363 Ry

     iteration #  7     ecut=    40.00 Ry     beta= 0.50
     Davidson diagonalization with overlap
     ethr =  3.82E-05,  avg # of iterations =  1.0

     negative rho (up, down):  3.669E-02 0.000E+00

     total cpu time spent up to now is       56.6 secs

     total energy              =   -1421.44275320 Ry
     estimated scf accuracy    <       0.03871038 Ry

     iteration #  8     ecut=    40.00 Ry     beta= 0.50
     Davidson diagonalization with overlap
     ethr =  3.58E-05,  avg # of iterations =  6.7

     negative rho (up, down):  3.133E-02 0.000E+00

     total cpu time spent up to now is       64.6 secs

     total energy              =   -1421.45204620 Ry
     estimated scf accuracy    <       0.02029680 Ry

     iteration #  9     ecut=    40.00 Ry     beta= 0.50
     Davidson diagonalization with overlap
     ethr =  1.88E-05,  avg # of iterations =  2.0

     negative rho (up, down):  9.952E-03 0.000E+00

     total cpu time spent up to now is       71.9 secs

     total energy              =   -1421.44976812 Ry
     estimated scf accuracy    <       0.01285085 Ry

     iteration # 10     ecut=    40.00 Ry     beta= 0.50
     Davidson diagonalization with overlap
     ethr =  1.19E-05,  avg # of iterations =  2.3

     negative rho (up, down):  3.330E-03 0.000E+00

     total cpu time spent up to now is       79.6 secs

     total energy              =   -1421.45104640 Ry
     estimated scf accuracy    <       0.00100732 Ry

     iteration # 11     ecut=    40.00 Ry     beta= 0.50
     Davidson diagonalization with overlap
     ethr =  9.33E-07,  avg # of iterations = 12.0

     negative rho (up, down):  1.575E-03 0.000E+00

     total cpu time spent up to now is       89.6 secs

     total energy              =   -1421.45137188 Ry
     estimated scf accuracy    <       0.00097643 Ry

     iteration # 12     ecut=    40.00 Ry     beta= 0.50
     Davidson diagonalization with overlap
     ethr =  9.04E-07,  avg # of iterations =  4.0

     negative rho (up, down):  6.866E-05 0.000E+00

     total cpu time spent up to now is       97.1 secs

     total energy              =   -1421.45127093 Ry
     estimated scf accuracy    <       0.00060948 Ry

     iteration # 13     ecut=    40.00 Ry     beta= 0.50
     Davidson diagonalization with overlap
     ethr =  5.64E-07,  avg # of iterations =  3.0

     negative rho (up, down):  9.197E-05 0.000E+00

     total cpu time spent up to now is      104.6 secs

     total energy              =   -1421.45133889 Ry
     estimated scf accuracy    <       0.00002298 Ry

     iteration # 14     ecut=    40.00 Ry     beta= 0.50
     Davidson diagonalization with overlap
     ethr =  2.13E-08,  avg # of iterations =  8.3

     negative rho (up, down):  6.903E-05 0.000E+00

     total cpu time spent up to now is      114.5 secs

     total energy              =   -1421.45135019 Ry
     estimated scf accuracy    <       0.00000542 Ry

     iteration # 15     ecut=    40.00 Ry     beta= 0.50
     Davidson diagonalization with overlap
     ethr =  5.02E-09,  avg # of iterations =  4.7

     negative rho (up, down):  5.523E-05 0.000E+00

     total cpu time spent up to now is      122.9 secs

     total energy              =   -1421.45135147 Ry
     estimated scf accuracy    <       0.00000247 Ry

     iteration # 16     ecut=    40.00 Ry     beta= 0.50
     Davidson diagonalization with overlap
     ethr =  2.29E-09,  avg # of iterations =  3.3

     negative rho (up, down):  3.611E-05 0.000E+00

     total cpu time spent up to now is      129.5 secs

     End of self-consistent calculation

          k = 0.0417 0.0417 0.0000 ( 48283 PWs)   bands (ev):

   -10.4509  -9.1139  -8.9490  -8.9490  -7.9565  -7.9565  -7.6237  -7.6237
    -7.4632  -6.9915  -6.6391  -6.6391  -6.4826  -6.4826  -6.1492  -5.5173
    -5.5173  -5.5119  -5.1766  -5.1766  -4.5440  -4.5440  -4.2145  -4.2130
    -4.0589  -3.5728  -3.5728  -3.0977  -3.0977  -2.7548  -2.7548  -2.2899
    -2.2899  -2.2281  -2.2281  -2.1479  -1.8933  -1.8056  -1.8056  -1.7990
    -1.6682  -1.6682  -1.3178  -0.9660  -0.9660  -0.8730  -0.5827  -0.5827
    -0.5677  -0.4107  -0.3852  -0.3852  -0.3052  -0.3052  -0.2000  -0.2000
     0.3581   0.4123   0.4123   0.5729   0.5846   0.8694   0.9156   0.9862
     0.9863

          k = 0.0417 0.1250 0.0000 ( 48328 PWs)   bands (ev):

   -10.1995  -9.6980  -8.8645  -8.7002  -8.3668  -8.2040  -7.7095  -7.3767
    -7.2171  -6.8843  -6.7447  -6.7258  -6.3940  -6.2524  -5.9053  -5.4361
    -5.2730  -5.2696  -5.2408  -4.7857  -4.3174  -4.3014  -3.9954  -3.9676
    -3.9633  -3.8180  -3.8117  -3.4791  -3.3386  -3.3378  -3.0555  -2.9134
    -2.8779  -2.5510  -2.5130  -2.0580  -2.0317  -1.9270  -1.9116  -1.6715
    -1.6593  -1.6027  -1.5652  -1.4480  -1.1939  -1.0876  -1.0445  -0.9833
    -0.5517  -0.5305  -0.3502  -0.0885   0.0269   0.1024   0.2422   0.3131
     0.3458   0.4142   0.4699   0.6456   0.7129   0.8262   1.1091   1.4492
     1.7034

          k = 0.1250 0.1250 0.0000 ( 48243 PWs)   bands (ev):

    -9.9485  -9.4478  -9.4478  -8.9489  -8.6154  -8.1186  -8.1186  -7.6235
    -6.4982  -6.4814  -6.4813  -6.0067  -6.0067  -5.9944  -5.9944  -5.5169
    -5.1942  -5.1942  -4.9993  -4.9993  -4.7124  -4.7124  -4.5196  -4.5196
    -3.7240  -3.7240  -3.7227  -3.2495  -3.2495  -3.2354  -3.2354  -3.1768
    -3.0984  -3.0984  -2.7503  -2.6213  -2.6213  -2.2614  -1.9147  -1.6906
    -1.6906  -1.4253  -1.2214  -1.2213  -1.0301  -0.9597  -0.9597  -0.8878
    -0.4937  -0.3170  -0.3170  -0.0391   0.1184   0.1477   0.1478   0.5084
     0.5187   0.5842   0.5842   0.9445   0.9445   0.9624   1.3202   1.4035
     1.4035

     the Fermi energy is     0.0825 ev

!    total energy              =   -1421.45135176 Ry
     total all-electron energy =    -17482.591489 Ry
     estimated scf accuracy    <       0.00000010 Ry
     smearing contrib. (-TS)   =      -0.01846669 Ry
     internal energy E=F+TS    =   -1421.43288506 Ry

     The total energy is F=E-TS. E is the sum of the following terms:
     one-electron contribution =   -1539.54491313 Ry
     hartree contribution      =     795.89614859 Ry
     xc contribution           =     -91.09986108 Ry
     ewald contribution        =     661.72892460 Ry
     one-center paw contrib.   =   -1248.41318404 Ry

     convergence has been achieved in  16 iterations

     negative rho (up, down):  3.611E-05 0.000E+00

     Forces acting on atoms (cartesian axes, Ry/au):

     atom    1 type  1   force =     0.00000000    0.00000000   -0.00628336
     atom    2 type  1   force =     0.00000000    0.00000139   -0.00628496
     atom    3 type  1   force =     0.00000000   -0.00000139   -0.00628496
     atom    4 type  1   force =     0.00000139    0.00000000   -0.00628496
     atom    5 type  1   force =    -0.00000048   -0.00000048   -0.00628518
     atom    6 type  1   force =    -0.00000048    0.00000048   -0.00628518
     atom    7 type  1   force =    -0.00000139    0.00000000   -0.00628496
     atom    8 type  1   force =     0.00000048   -0.00000048   -0.00628518
     atom    9 type  1   force =     0.00000048    0.00000048   -0.00628518
     atom   10 type  1   force =    -0.00000012   -0.00000012    0.00373325
     atom   11 type  1   force =    -0.00000096    0.00000000    0.00373298
     atom   12 type  1   force =    -0.00000012    0.00000012    0.00373325
     atom   13 type  1   force =     0.00000000   -0.00000096    0.00373298
     atom   14 type  1   force =     0.00000000    0.00000000    0.00373263
     atom   15 type  1   force =     0.00000000    0.00000096    0.00373298
     atom   16 type  1   force =     0.00000012   -0.00000012    0.00373325
     atom   17 type  1   force =     0.00000096    0.00000000    0.00373298
     atom   18 type  1   force =     0.00000012    0.00000012    0.00373325
     atom   19 type  1   force =     0.00000000    0.00000000    0.00181712
     atom   20 type  1   force =     0.00000000    0.00000014    0.00181686
     atom   21 type  1   force =     0.00000000   -0.00000014    0.00181686
     atom   22 type  1   force =     0.00000014    0.00000000    0.00181686
     atom   23 type  1   force =    -0.00000057   -0.00000057    0.00181842
     atom   24 type  1   force =    -0.00000057    0.00000057    0.00181842
     atom   25 type  1   force =    -0.00000014    0.00000000    0.00181686
     atom   26 type  1   force =     0.00000057   -0.00000057    0.00181842
     atom   27 type  1   force =     0.00000057    0.00000057    0.00181842
     atom   28 type  1   force =     0.00000051    0.00000051    0.00073381
     atom   29 type  1   force =     0.00000130    0.00000000    0.00073484
     atom   30 type  1   force =     0.00000051   -0.00000051    0.00073381
     atom   31 type  1   force =     0.00000000    0.00000130    0.00073484
     atom   32 type  1   force =     0.00000000    0.00000000    0.00073356
     atom   33 type  1   force =     0.00000000   -0.00000130    0.00073484
     atom   34 type  1   force =    -0.00000051    0.00000051    0.00073381
     atom   35 type  1   force =    -0.00000130    0.00000000    0.00073484
     atom   36 type  1   force =    -0.00000051   -0.00000051    0.00073381

     Total force =     0.005881     Total SCF correction =     0.000296

     BFGS Geometry Optimization
     Energy error            =      0.0E+00 Ry
     Gradient error          =      1.8E-03 Ry/Bohr

     number of scf cycles    =   1
     number of bfgs steps    =   0

     energy             new  =   -1421.4513517572 Ry

     new trust radius        =       0.0018184238 bohr
     new conv_thr            =       0.0000001000 Ry


ATOMIC_POSITIONS (alat)
Al               0.0000000000        0.0000000000        0.0000000000    0   0   0
Al               0.0000000000        0.9999999976        0.0000000000    0   0   0
Al               0.0000000000        1.9999999953        0.0000000000    0   0   0
Al               0.9999999976        0.0000000000        0.0000000000    0   0   0
Al               0.9999999976        0.9999999976        0.0000000000    0   0   0
Al               0.9999999976        1.9999999953        0.0000000000    0   0   0
Al               1.9999999953        0.0000000000        0.0000000000    0   0   0
Al               1.9999999953        0.9999999976        0.0000000000    0   0   0
Al               1.9999999953        1.9999999953        0.0000000000    0   0   0
Al               0.4999999988        0.4999999988        0.7071067673    0   0   0
Al               0.4999999988        1.4999999965        0.7071067673    0   0   0
Al               0.4999999988        2.4999999941        0.7071067673    0   0   0
Al               1.4999999965        0.4999999988        0.7071067673    0   0   0
Al               1.4999999965        1.4999999965        0.7071067673    0   0   0
Al               1.4999999965        2.4999999941        0.7071067673    0   0   0
Al               2.4999999941        0.4999999988        0.7071067673    0   0   0
Al               2.4999999941        1.4999999965        0.7071067673    0   0   0
Al               2.4999999941        2.4999999941        0.7071067673    0   0   0
Al               0.0000000000        0.0000000000        1.4310995570    0   0   1
Al               0.0000000000        0.9999999976        1.4310959124    0   0   1
Al               0.0000000000        1.9999999953        1.4310959124    0   0   1
Al               0.9999999976        0.0000000000        1.4310959124    0   0   1
Al               0.9999999976        0.9999999976        1.4310952442    0   0   1
Al               0.9999999976        1.9999999953        1.4310952442    0   0   1
Al               1.9999999953        0.0000000000        1.4310959124    0   0   1
Al               1.9999999953        0.9999999976        1.4310952442    0   0   1
Al               1.9999999953        1.9999999953        1.4310952442    0   0   1
Al               0.4999999988        0.4999999988        2.1567622663    0   0   1
Al               0.4999999988        1.4999999965        2.1567612707    0   0   1
Al               0.4999999988        2.4999999941        2.1567622663    0   0   1
Al               1.4999999965        0.4999999988        2.1567612707    0   0   1
Al               1.4999999965        1.4999999965        2.1567632907    0   0   1
Al               1.4999999965        2.4999999941        2.1567612707    0   0   1
Al               2.4999999941        0.4999999988        2.1567622663    0   0   1
Al               2.4999999941        1.4999999965        2.1567612707    0   0   1
Al               2.4999999941        2.4999999941        2.1567622663    0   0   1



     Writing config-only to output data dir ./tmp/Al.save/ :
     XML data file
     NEW-OLD atomic charge density approx. for the potential

     negative rho (up, down):  3.611E-05 0.000E+00

     total cpu time spent up to now is      136.2 secs

     Self-consistent Calculation

     iteration #  1     ecut=    40.00 Ry     beta= 0.50
     Davidson diagonalization with overlap
     ethr =  1.00E-06,  avg # of iterations =  2.0

     Threshold (ethr) on eigenvalues was too large:
     Diagonalizing with lowered threshold

     Davidson diagonalization with overlap
     ethr =  2.47E-09,  avg # of iterations =  8.0

     negative rho (up, down):  3.326E-05 0.000E+00

     total cpu time spent up to now is      150.2 secs

     total energy              =   -1421.45138604 Ry
     estimated scf accuracy    <       0.00000321 Ry

     iteration #  2     ecut=    40.00 Ry     beta= 0.50
     Davidson diagonalization with overlap
     ethr =  2.97E-09,  avg # of iterations =  1.0

     negative rho (up, down):  2.730E-05 0.000E+00

     total cpu time spent up to now is      157.1 secs

     total energy              =   -1421.45138564 Ry
     estimated scf accuracy    <       0.00000168 Ry

     iteration #  3     ecut=    40.00 Ry     beta= 0.50
     Davidson diagonalization with overlap
     ethr =  1.56E-09,  avg # of iterations =  5.3

     negative rho (up, down):  2.880E-05 0.000E+00

     total cpu time spent up to now is      165.1 secs

     total energy              =   -1421.45138591 Ry
     estimated scf accuracy    <       0.00000018 Ry

     iteration #  4     ecut=    40.00 Ry     beta= 0.50
     Davidson diagonalization with overlap
     ethr =  1.70E-10,  avg # of iterations =  5.7

     negative rho (up, down):  3.615E-05 0.000E+00

     total cpu time spent up to now is      171.8 secs

     End of self-consistent calculation

          k = 0.0417 0.0417 0.0000 ( 48283 PWs)   bands (ev):

   -10.4508  -9.1154  -8.9489  -8.9489  -7.9563  -7.9563  -7.6252  -7.6252
    -7.4631  -6.9917  -6.6406  -6.6406  -6.4825  -6.4825  -6.1507  -5.5175
    -5.5175  -5.5118  -5.1782  -5.1782  -4.5442  -4.5442  -4.2160  -4.2139
    -4.0590  -3.5727  -3.5727  -3.0979  -3.0979  -2.7556  -2.7556  -2.2915
    -2.2915  -2.2279  -2.2279  -2.1480  -1.8941  -1.8065  -1.8065  -1.7988
    -1.6681  -1.6681  -1.3186  -0.9676  -0.9676  -0.8728  -0.5836  -0.5836
    -0.5693  -0.4106  -0.3860  -0.3860  -0.3066  -0.3066  -0.2002  -0.2002
     0.3565   0.4115   0.4115   0.5720   0.5847   0.8687   0.9143   0.9864
     0.9864

          k = 0.0417 0.1250 0.0000 ( 48328 PWs)   bands (ev):

   -10.1994  -9.6978  -8.8660  -8.7001  -8.3683  -8.2039  -7.7094  -7.3782
    -7.2170  -6.8858  -6.7449  -6.7256  -6.3955  -6.2525  -5.9068  -5.4374
    -5.2731  -5.2695  -5.2409  -4.7859  -4.3173  -4.3015  -3.9966  -3.9685
    -3.9648  -3.8181  -3.8118  -3.4800  -3.3384  -3.3380  -3.0566  -2.9137
    -2.8778  -2.5525  -2.5138  -2.0595  -2.0326  -1.9271  -1.9117  -1.6731
    -1.6601  -1.6043  -1.5661  -1.4479  -1.1947  -1.0885  -1.0444  -0.9834
    -0.5527  -0.5306  -0.3511  -0.0900   0.0266   0.1013   0.2423   0.3118
     0.3458   0.4144   0.4697   0.6447   0.7118   0.8253   1.1082   1.4486
     1.7026

          k = 0.1250 0.1250 0.0000 ( 48243 PWs)   bands (ev):

    -9.9484  -9.4477  -9.4477  -8.9488  -8.6169  -8.1201  -8.1201  -7.6250
    -6.4984  -6.4812  -6.4812  -6.0069  -6.0069  -5.9943  -5.9943  -5.5171
    -5.1955  -5.1955  -4.9994  -4.9994  -4.7137  -4.7137  -4.5197  -4.5197
    -3.7256  -3.7256  -3.7236  -3.2510  -3.2510  -3.2363  -3.2363  -3.1767
    -3.0985  -3.0985  -2.7512  -2.6214  -2.6214  -2.2612  -1.9162  -1.6907
    -1.6907  -1.4261  -1.2215  -1.2214  -1.0318  -0.9605  -0.9605  -0.8877
    -0.4945  -0.3180  -0.3180  -0.0390   0.1184   0.1468   0.1468   0.5069
     0.5189   0.5843   0.5843   0.9435   0.9435   0.9625   1.3187   1.4025
     1.4025

     the Fermi energy is     0.0818 ev

!    total energy              =   -1421.45138587 Ry
     total all-electron energy =    -17482.591523 Ry
     estimated scf accuracy    <       0.00000003 Ry
     smearing contrib. (-TS)   =      -0.01839879 Ry
     internal energy E=F+TS    =   -1421.43298708 Ry

     The total energy is F=E-TS. E is the sum of the following terms:
     one-electron contribution =   -1539.37640861 Ry
     hartree contribution      =     795.81588623 Ry
     xc contribution           =     -91.09910974 Ry
     ewald contribution        =     661.63971616 Ry
     one-center paw contrib.   =   -1248.41307112 Ry

     convergence has been achieved in   4 iterations

     negative rho (up, down):  3.615E-05 0.000E+00

     Forces acting on atoms (cartesian axes, Ry/au):

     atom    1 type  1   force =     0.00000000    0.00000000   -0.00628026
     atom    2 type  1   force =     0.00000000    0.00000050   -0.00628044
     atom    3 type  1   force =     0.00000000   -0.00000050   -0.00628044
     atom    4 type  1   force =     0.00000050    0.00000000   -0.00628044
     atom    5 type  1   force =    -0.00000018   -0.00000018   -0.00628049
     atom    6 type  1   force =    -0.00000018    0.00000018   -0.00628049
     atom    7 type  1   force =    -0.00000050    0.00000000   -0.00628044
     atom    8 type  1   force =     0.00000018   -0.00000018   -0.00628049
     atom    9 type  1   force =     0.00000018    0.00000018   -0.00628049
     atom   10 type  1   force =    -0.00000005   -0.00000005    0.00379735
     atom   11 type  1   force =    -0.00000018    0.00000000    0.00379687
     atom   12 type  1   force =    -0.00000005    0.00000005    0.00379735
     atom   13 type  1   force =     0.00000000   -0.00000018    0.00379687
     atom   14 type  1   force =     0.00000000    0.00000000    0.00379699
     atom   15 type  1   force =     0.00000000    0.00000018    0.00379687
     atom   16 type  1   force =     0.00000005   -0.00000005    0.00379735
     atom   17 type  1   force =     0.00000018    0.00000000    0.00379687
     atom   18 type  1   force =     0.00000005    0.00000005    0.00379735
     atom   19 type  1   force =     0.00000000    0.00000000    0.00169553
     atom   20 type  1   force =     0.00000000   -0.00000006    0.00169720
     atom   21 type  1   force =     0.00000000    0.00000006    0.00169720
     atom   22 type  1   force =    -0.00000006    0.00000000    0.00169720
     atom   23 type  1   force =     0.00000007    0.00000007    0.00169774
     atom   24 type  1   force =     0.00000007   -0.00000007    0.00169774
     atom   25 type  1   force =     0.00000006    0.00000000    0.00169720
     atom   26 type  1   force =    -0.00000007    0.00000007    0.00169774
     atom   27 type  1   force =    -0.00000007   -0.00000007    0.00169774
     atom   28 type  1   force =     0.00000039    0.00000039    0.00078617
     atom   29 type  1   force =     0.00000031    0.00000000    0.00078608
     atom   30 type  1   force =     0.00000039   -0.00000039    0.00078617
     atom   31 type  1   force =     0.00000000    0.00000031    0.00078608
     atom   32 type  1   force =     0.00000000    0.00000000    0.00078580
     atom   33 type  1   force =     0.00000000   -0.00000031    0.00078608
     atom   34 type  1   force =    -0.00000039    0.00000039    0.00078617
     atom   35 type  1   force =    -0.00000031    0.00000000    0.00078608
     atom   36 type  1   force =    -0.00000039   -0.00000039    0.00078617

     Total force =     0.005611     Total SCF correction =     0.000121
     Energy error            =      3.4E-05 Ry
     Gradient error          =      1.7E-03 Ry/Bohr

     number of scf cycles    =   2
     number of bfgs steps    =   1

     energy             old  =   -1421.4513517572 Ry
     energy             new  =   -1421.4513858716 Ry

     CASE: energy            _new < energy            _old


     WARNING: bfgs curvature condition failed, Theta= 0.839
     new trust radius        =       0.0020002662 bohr
     new conv_thr            =       0.0000000010 Ry


ATOMIC_POSITIONS (alat)
Al               0.0000000000        0.0000000000        0.0000000000    0   0   0
Al               0.0000000000        0.9999999976        0.0000000000    0   0   0
Al               0.0000000000        1.9999999953        0.0000000000    0   0   0
Al               0.9999999976        0.0000000000        0.0000000000    0   0   0
Al               0.9999999976        0.9999999976        0.0000000000    0   0   0
Al               0.9999999976        1.9999999953        0.0000000000    0   0   0
Al               1.9999999953        0.0000000000        0.0000000000    0   0   0
Al               1.9999999953        0.9999999976        0.0000000000    0   0   0
Al               1.9999999953        1.9999999953        0.0000000000    0   0   0
Al               0.4999999988        0.4999999988        0.7071067673    0   0   0
Al               0.4999999988        1.4999999965        0.7071067673    0   0   0
Al               0.4999999988        2.4999999941        0.7071067673    0   0   0
Al               1.4999999965        0.4999999988        0.7071067673    0   0   0
Al               1.4999999965        1.4999999965        0.7071067673    0   0   0
Al               1.4999999965        2.4999999941        0.7071067673    0   0   0
Al               2.4999999941        0.4999999988        0.7071067673    0   0   0
Al               2.4999999941        1.4999999965        0.7071067673    0   0   0
Al               2.4999999941        2.4999999941        0.7071067673    0   0   0
Al               0.0000000000        0.0000000000        1.4314698847    0   0   1
Al               0.0000000000        0.9999999976        1.4314665935    0   0   1
Al               0.0000000000        1.9999999953        1.4314665935    0   0   1
Al               0.9999999976        0.0000000000        1.4314665935    0   0   1
Al               0.9999999976        0.9999999976        1.4314660475    0   0   1
Al               0.9999999976        1.9999999953        1.4314660475    0   0   1
Al               1.9999999953        0.0000000000        1.4314665935    0   0   1
Al               1.9999999953        0.9999999976        1.4314660475    0   0   1
Al               1.9999999953        1.9999999953        1.4314660475    0   0   1
Al               0.4999999988        0.4999999988        2.1569334452    0   0   1
Al               0.4999999988        1.4999999965        2.1569324364    0   0   1
Al               0.4999999988        2.4999999941        2.1569334452    0   0   1
Al               1.4999999965        0.4999999988        2.1569324364    0   0   1
Al               1.4999999965        1.4999999965        2.1569343903    0   0   1
Al               1.4999999965        2.4999999941        2.1569324364    0   0   1
Al               2.4999999941        0.4999999988        2.1569334452    0   0   1
Al               2.4999999941        1.4999999965        2.1569324364    0   0   1
Al               2.4999999941        2.4999999941        2.1569334452    0   0   1



     Writing config-only to output data dir ./tmp/Al.save/ :
     XML data file
     NEW-OLD atomic charge density approx. for the potential

     negative rho (up, down):  3.615E-05 0.000E+00

     total cpu time spent up to now is      178.4 secs

     Self-consistent Calculation

     iteration #  1     ecut=    40.00 Ry     beta= 0.50
     Davidson diagonalization with overlap
     ethr =  1.00E-06,  avg # of iterations =  2.0

     Threshold (ethr) on eigenvalues was too large:
     Diagonalizing with lowered threshold

     Davidson diagonalization with overlap
     ethr =  1.85E-09,  avg # of iterations = 10.0

     negative rho (up, down):  3.582E-05 0.000E+00

     total cpu time spent up to now is      193.8 secs

     total energy              =   -1421.45142210 Ry
     estimated scf accuracy    <       0.00001239 Ry

     iteration #  2     ecut=    40.00 Ry     beta= 0.50
     Davidson diagonalization with overlap
     ethr =  1.15E-08,  avg # of iterations =  1.0

     negative rho (up, down):  3.593E-05 0.000E+00

     total cpu time spent up to now is      200.6 secs

     total energy              =   -1421.45142126 Ry
     estimated scf accuracy    <       0.00000583 Ry

     iteration #  3     ecut=    40.00 Ry     beta= 0.50
     Davidson diagonalization with overlap
     ethr =  5.40E-09,  avg # of iterations =  6.0

     negative rho (up, down):  3.617E-05 0.000E+00

     total cpu time spent up to now is      208.6 secs

     total energy              =   -1421.45142186 Ry
     estimated scf accuracy    <       0.00000069 Ry

     iteration #  4     ecut=    40.00 Ry     beta= 0.50
     Davidson diagonalization with overlap
     ethr =  6.36E-10,  avg # of iterations =  5.0

     negative rho (up, down):  3.615E-05 0.000E+00

     total cpu time spent up to now is      216.3 secs

     total energy              =   -1421.45142189 Ry
     estimated scf accuracy    <       0.00000011 Ry

     iteration #  5     ecut=    40.00 Ry     beta= 0.50
     Davidson diagonalization with overlap
     ethr =  9.91E-11,  avg # of iterations =  5.7

     negative rho (up, down):  3.620E-05 0.000E+00

     total cpu time spent up to now is      224.6 secs

     total energy              =   -1421.45142191 Ry
     estimated scf accuracy    <          8.4E-09 Ry

     iteration #  6     ecut=    40.00 Ry     beta= 0.50
     Davidson diagonalization with overlap
     ethr =  7.79E-12,  avg # of iterations =  8.7

     negative rho (up, down):  3.634E-05 0.000E+00

     total cpu time spent up to now is      234.6 secs

     total energy              =   -1421.45142192 Ry
     estimated scf accuracy    <       0.00000004 Ry

     iteration #  7     ecut=    40.00 Ry     beta= 0.50
     Davidson diagonalization with overlap
     ethr =  7.79E-12,  avg # of iterations =  3.3

     negative rho (up, down):  3.641E-05 0.000E+00

     total cpu time spent up to now is      242.1 secs

     total energy              =   -1421.45142192 Ry
     estimated scf accuracy    <          5.7E-09 Ry

     iteration #  8     ecut=    40.00 Ry     beta= 0.50
     Davidson diagonalization with overlap
     ethr =  5.29E-12,  avg # of iterations =  6.0

     negative rho (up, down):  3.625E-05 0.000E+00

     total cpu time spent up to now is      250.9 secs

     total energy              =   -1421.45142192 Ry
     estimated scf accuracy    <          7.7E-09 Ry

     iteration #  9     ecut=    40.00 Ry     beta= 0.50
     Davidson diagonalization with overlap
     ethr =  5.29E-12,  avg # of iterations =  2.7

     negative rho (up, down):  3.619E-05 0.000E+00

     total cpu time spent up to now is      257.0 secs

     End of self-consistent calculation

          k = 0.0417 0.0417 0.0000 ( 48283 PWs)   bands (ev):

   -10.4493  -9.1159  -8.9473  -8.9473  -7.9548  -7.9548  -7.6256  -7.6256
    -7.4616  -6.9907  -6.6410  -6.6410  -6.4809  -6.4809  -6.1512  -5.5165
    -5.5165  -5.5102  -5.1786  -5.1786  -4.5432  -4.5432  -4.2164  -4.2138
    -4.0580  -3.5711  -3.5711  -3.0968  -3.0968  -2.7555  -2.7555  -2.2919
    -2.2919  -2.2263  -2.2263  -2.1470  -1.8940  -1.8063  -1.8063  -1.7972
    -1.6666  -1.6666  -1.3185  -0.9680  -0.9680  -0.8712  -0.5835  -0.5835
    -0.5698  -0.4090  -0.3859  -0.3859  -0.3071  -0.3071  -0.1993  -0.1993
     0.3560   0.4115   0.4115   0.5721   0.5862   0.8688   0.9140   0.9879
     0.9879

          k = 0.0417 0.1250 0.0000 ( 48328 PWs)   bands (ev):

   -10.1978  -9.6963  -8.8664  -8.6985  -8.3688  -8.2023  -7.7078  -7.3787
    -7.2154  -6.8862  -6.7439  -6.7241  -6.3959  -6.2516  -5.9072  -5.4375
    -5.2721  -5.2679  -5.2396  -4.7849  -4.3157  -4.3005  -3.9967  -3.9684
    -3.9652  -3.8171  -3.8106  -3.4799  -3.3370  -3.3369  -3.0566  -2.9125
    -2.8762  -2.5530  -2.5137  -2.0599  -2.0325  -1.9261  -1.9107  -1.6735
    -1.6600  -1.6047  -1.5660  -1.4463  -1.1946  -1.0884  -1.0428  -0.9823
    -0.5527  -0.5295  -0.3510  -0.0904   0.0276   0.1013   0.2437   0.3115
     0.3471   0.4160   0.4707   0.6447   0.7117   0.8254   1.1083   1.4492
     1.7031

          k = 0.1250 0.1250 0.0000 ( 48243 PWs)   bands (ev):

    -9.9468  -9.4462  -9.4462  -8.9473  -8.6173  -8.1205  -8.1205  -7.6254
    -6.4974  -6.4797  -6.4797  -6.0059  -6.0059  -5.9927  -5.9927  -5.5161
    -5.1957  -5.1957  -4.9981  -4.9981  -4.7138  -4.7138  -4.5184  -4.5184
    -3.7260  -3.7260  -3.7236  -3.2515  -3.2515  -3.2362  -3.2362  -3.1751
    -3.0975  -3.0975  -2.7511  -2.6204  -2.6204  -2.2596  -1.9166  -1.6896
    -1.6896  -1.4260  -1.2204  -1.2204  -1.0323  -0.9604  -0.9604  -0.8861
    -0.4944  -0.3181  -0.3181  -0.0376   0.1196   0.1468   0.1468   0.5066
     0.5205   0.5859   0.5859   0.9434   0.9434   0.9637   1.3183   1.4024
     1.4024

     the Fermi energy is     0.0822 ev

!    total energy              =   -1421.45142192 Ry
     total all-electron energy =    -17482.591559 Ry
     estimated scf accuracy    <          6.2E-11 Ry
     smearing contrib. (-TS)   =      -0.01830899 Ry
     internal energy E=F+TS    =   -1421.43311293 Ry

     The total energy is F=E-TS. E is the sum of the following terms:
     one-electron contribution =   -1539.16867886 Ry
     hartree contribution      =     795.71241444 Ry
     xc contribution           =     -91.09794904 Ry
     ewald contribution        =     661.53397452 Ry
     one-center paw contrib.   =   -1248.41287398 Ry

     convergence has been achieved in   9 iterations

     negative rho (up, down):  3.619E-05 0.000E+00

     Forces acting on atoms (cartesian axes, Ry/au):

     atom    1 type  1   force =     0.00000000    0.00000000   -0.00626731
     atom    2 type  1   force =     0.00000000    0.00000001   -0.00626733
     atom    3 type  1   force =     0.00000000   -0.00000001   -0.00626733
     atom    4 type  1   force =     0.00000001    0.00000000   -0.00626733
     atom    5 type  1   force =     0.00000000    0.00000000   -0.00626733
     atom    6 type  1   force =     0.00000000   -0.00000000   -0.00626733
     atom    7 type  1   force =    -0.00000001    0.00000000   -0.00626733
     atom    8 type  1   force =    -0.00000000    0.00000000   -0.00626733
     atom    9 type  1   force =    -0.00000000   -0.00000000   -0.00626733
     atom   10 type  1   force =    -0.00000017   -0.00000017    0.00388557
     atom   11 type  1   force =    -0.00000003    0.00000000    0.00388529
     atom   12 type  1   force =    -0.00000017    0.00000017    0.00388557
     atom   13 type  1   force =     0.00000000   -0.00000003    0.00388529
     atom   14 type  1   force =     0.00000000    0.00000000    0.00388530
     atom   15 type  1   force =     0.00000000    0.00000003    0.00388529
     atom   16 type  1   force =     0.00000017   -0.00000017    0.00388557
     atom   17 type  1   force =     0.00000003    0.00000000    0.00388529
     atom   18 type  1   force =     0.00000017    0.00000017    0.00388557
     atom   19 type  1   force =     0.00000000    0.00000000    0.00155285
     atom   20 type  1   force =     0.00000000   -0.00000012    0.00155422
     atom   21 type  1   force =     0.00000000    0.00000012    0.00155422
     atom   22 type  1   force =    -0.00000012    0.00000000    0.00155422
     atom   23 type  1   force =     0.00000004    0.00000004    0.00155452
     atom   24 type  1   force =     0.00000004   -0.00000004    0.00155452
     atom   25 type  1   force =     0.00000012    0.00000000    0.00155422
     atom   26 type  1   force =    -0.00000004    0.00000004    0.00155452
     atom   27 type  1   force =    -0.00000004   -0.00000004    0.00155452
     atom   28 type  1   force =     0.00000020    0.00000020    0.00082776
     atom   29 type  1   force =     0.00000008    0.00000000    0.00082778
     atom   30 type  1   force =     0.00000020   -0.00000020    0.00082776
     atom   31 type  1   force =     0.00000000    0.00000008    0.00082778
     atom   32 type  1   force =     0.00000000    0.00000000    0.00082726
     atom   33 type  1   force =     0.00000000   -0.00000008    0.00082778
     atom   34 type  1   force =    -0.00000020    0.00000020    0.00082776
     atom   35 type  1   force =    -0.00000008    0.00000000    0.00082778
     atom   36 type  1   force =    -0.00000020   -0.00000020    0.00082776

     Total force =     0.005283     Total SCF correction =     0.000011
     Energy error            =      3.6E-05 Ry
     Gradient error          =      1.6E-03 Ry/Bohr

     number of scf cycles    =   3
     number of bfgs steps    =   2

     energy             old  =   -1421.4513858716 Ry
     energy             new  =   -1421.4514219177 Ry

     CASE: energy            _new < energy            _old

     new trust radius        =       0.0030003993 bohr
     new conv_thr            =       0.0000000010 Ry


ATOMIC_POSITIONS (alat)
Al               0.0000000000        0.0000000000        0.0000000000    0   0   0
Al               0.0000000000        0.9999999976        0.0000000000    0   0   0
Al               0.0000000000        1.9999999953        0.0000000000    0   0   0
Al               0.9999999976        0.0000000000        0.0000000000    0   0   0
Al               0.9999999976        0.9999999976        0.0000000000    0   0   0
Al               0.9999999976        1.9999999953        0.0000000000    0   0   0
Al               1.9999999953        0.0000000000        0.0000000000    0   0   0
Al               1.9999999953        0.9999999976        0.0000000000    0   0   0
Al               1.9999999953        1.9999999953        0.0000000000    0   0   0
Al               0.4999999988        0.4999999988        0.7071067673    0   0   0
Al               0.4999999988        1.4999999965        0.7071067673    0   0   0
Al               0.4999999988        2.4999999941        0.7071067673    0   0   0
Al               1.4999999965        0.4999999988        0.7071067673    0   0   0
Al               1.4999999965        1.4999999965        0.7071067673    0   0   0
Al               1.4999999965        2.4999999941        0.7071067673    0   0   0
Al               2.4999999941        0.4999999988        0.7071067673    0   0   0
Al               2.4999999941        1.4999999965        0.7071067673    0   0   0
Al               2.4999999941        2.4999999941        0.7071067673    0   0   0
Al               0.0000000000        0.0000000000        1.4320260810    0   0   1
Al               0.0000000000        0.9999999976        1.4320227985    0   0   1
Al               0.0000000000        1.9999999953        1.4320227985    0   0   1
Al               0.9999999976        0.0000000000        1.4320227985    0   0   1
Al               0.9999999976        0.9999999976        1.4320220046    0   0   1
Al               0.9999999976        1.9999999953        1.4320220046    0   0   1
Al               1.9999999953        0.0000000000        1.4320227985    0   0   1
Al               1.9999999953        0.9999999976        1.4320220046    0   0   1
Al               1.9999999953        1.9999999953        1.4320220046    0   0   1
Al               0.4999999988        0.4999999988        2.1574616553    0   0   1
Al               0.4999999988        1.4999999965        2.1574609421    0   0   1
Al               0.4999999988        2.4999999941        2.1574616553    0   0   1
Al               1.4999999965        0.4999999988        2.1574609421    0   0   1
Al               1.4999999965        1.4999999965        2.1574620565    0   0   1
Al               1.4999999965        2.4999999941        2.1574609421    0   0   1
Al               2.4999999941        0.4999999988        2.1574616553    0   0   1
Al               2.4999999941        1.4999999965        2.1574609421    0   0   1
Al               2.4999999941        2.4999999941        2.1574616553    0   0   1



     Writing config-only to output data dir ./tmp/Al.save/ :
     XML data file
     NEW-OLD atomic charge density approx. for the potential

     negative rho (up, down):  3.614E-05 0.000E+00

     total cpu time spent up to now is      263.4 secs

     Self-consistent Calculation

     iteration #  1     ecut=    40.00 Ry     beta= 0.50
     Davidson diagonalization with overlap
     ethr =  1.00E-06,  avg # of iterations =  2.0

     Threshold (ethr) on eigenvalues was too large:
     Diagonalizing with lowered threshold

     Davidson diagonalization with overlap
     ethr =  2.68E-09,  avg # of iterations =  7.0

     negative rho (up, down):  3.567E-05 0.000E+00

     total cpu time spent up to now is      279.5 secs

     total energy              =   -1421.45148313 Ry
     estimated scf accuracy    <       0.00001118 Ry

     iteration #  2     ecut=    40.00 Ry     beta= 0.50
     Davidson diagonalization with overlap
     ethr =  1.03E-08,  avg # of iterations =  1.0

     negative rho (up, down):  3.643E-05 0.000E+00

     total cpu time spent up to now is      286.2 secs

     total energy              =   -1421.45148206 Ry
     estimated scf accuracy    <       0.00000499 Ry

     iteration #  3     ecut=    40.00 Ry     beta= 0.50
     Davidson diagonalization with overlap
     ethr =  4.62E-09,  avg # of iterations =  4.7

     negative rho (up, down):  3.678E-05 0.000E+00

     total cpu time spent up to now is      294.3 secs

     total energy              =   -1421.45148288 Ry
     estimated scf accuracy    <       0.00000075 Ry

     iteration #  4     ecut=    40.00 Ry     beta= 0.50
     Davidson diagonalization with overlap
     ethr =  6.96E-10,  avg # of iterations =  2.0

     negative rho (up, down):  3.681E-05 0.000E+00

     total cpu time spent up to now is      301.4 secs

     total energy              =   -1421.45148295 Ry
     estimated scf accuracy    <       0.00000014 Ry

     iteration #  5     ecut=    40.00 Ry     beta= 0.50
     Davidson diagonalization with overlap
     ethr =  1.29E-10,  avg # of iterations =  5.3

     negative rho (up, down):  3.687E-05 0.000E+00

     total cpu time spent up to now is      309.1 secs

     total energy              =   -1421.45148294 Ry
     estimated scf accuracy    <       0.00000013 Ry

     iteration #  6     ecut=    40.00 Ry     beta= 0.50
     Davidson diagonalization with overlap
     ethr =  1.24E-10,  avg # of iterations =  1.0

     negative rho (up, down):  3.675E-05 0.000E+00

     total cpu time spent up to now is      315.8 secs

     total energy              =   -1421.45148297 Ry
     estimated scf accuracy    <       0.00000014 Ry

     iteration #  7     ecut=    40.00 Ry     beta= 0.50
     Davidson diagonalization with overlap
     ethr =  1.24E-10,  avg # of iterations =  5.0

     negative rho (up, down):  3.642E-05 0.000E+00

     total cpu time spent up to now is      324.0 secs

     total energy              =   -1421.45148299 Ry
     estimated scf accuracy    <       0.00000001 Ry

     iteration #  8     ecut=    40.00 Ry     beta= 0.50
     Davidson diagonalization with overlap
     ethr =  1.06E-11,  avg # of iterations =  6.3

     negative rho (up, down):  3.641E-05 0.000E+00

     total cpu time spent up to now is      332.8 secs

     total energy              =   -1421.45148300 Ry
     estimated scf accuracy    <       0.00000006 Ry

     iteration #  9     ecut=    40.00 Ry     beta= 0.50
     Davidson diagonalization with overlap
     ethr =  1.06E-11,  avg # of iterations =  1.7

     negative rho (up, down):  3.652E-05 0.000E+00

     total cpu time spent up to now is      340.1 secs

     total energy              =   -1421.45148300 Ry
     estimated scf accuracy    <       0.00000006 Ry

     iteration # 10     ecut=    40.00 Ry     beta= 0.50
     Davidson diagonalization with overlap
     ethr =  1.06E-11,  avg # of iterations =  1.3

     negative rho (up, down):  3.653E-05 0.000E+00

     total cpu time spent up to now is      347.0 secs

     total energy              =   -1421.45148300 Ry
     estimated scf accuracy    <       0.00000004 Ry

     iteration # 11     ecut=    40.00 Ry     beta= 0.50
     Davidson diagonalization with overlap
     ethr =  1.06E-11,  avg # of iterations =  1.0

     negative rho (up, down):  3.654E-05 0.000E+00

     total cpu time spent up to now is      354.0 secs

     total energy              =   -1421.45148299 Ry
     estimated scf accuracy    <       0.00000003 Ry

     iteration # 12     ecut=    40.00 Ry     beta= 0.50
     Davidson diagonalization with overlap
     ethr =  1.06E-11,  avg # of iterations =  4.0

     negative rho (up, down):  3.644E-05 0.000E+00

     total cpu time spent up to now is      362.0 secs

     total energy              =   -1421.45148299 Ry
     estimated scf accuracy    <          5.1E-09 Ry

     iteration # 13     ecut=    40.00 Ry     beta= 0.50
     Davidson diagonalization with overlap
     ethr =  4.77E-12,  avg # of iterations =  1.3

     negative rho (up, down):  3.623E-05 0.000E+00

     total cpu time spent up to now is      367.9 secs

     End of self-consistent calculation

          k = 0.0417 0.0417 0.0000 ( 48283 PWs)   bands (ev):

   -10.4467  -9.1160  -8.9448  -8.9448  -7.9522  -7.9522  -7.6257  -7.6257
    -7.4590  -6.9898  -6.6412  -6.6412  -6.4783  -6.4783  -6.1513  -5.5156
    -5.5156  -5.5076  -5.1787  -5.1787  -4.5422  -4.5422  -4.2165  -4.2147
    -4.0571  -3.5685  -3.5685  -3.0959  -3.0959  -2.7563  -2.7563  -2.2920
    -2.2920  -2.2237  -2.2237  -2.1459  -1.8947  -1.8071  -1.8071  -1.7945
    -1.6640  -1.6640  -1.3192  -0.9682  -0.9682  -0.8685  -0.5838  -0.5838
    -0.5700  -0.4064  -0.3865  -0.3865  -0.3076  -0.3076  -0.1984  -0.1984
     0.3558   0.4108   0.4108   0.5713   0.5886   0.8683   0.9141   0.9904
     0.9904

          k = 0.0417 0.1250 0.0000 ( 48328 PWs)   bands (ev):

   -10.1953  -9.6938  -8.8665  -8.6960  -8.3689  -8.1998  -7.7053  -7.3788
    -7.2129  -6.8863  -6.7429  -6.7215  -6.3960  -6.2506  -5.9074  -5.4373
    -5.2712  -5.2653  -5.2374  -4.7840  -4.3131  -4.2996  -3.9964  -3.9693
    -3.9654  -3.8161  -3.8084  -3.4807  -3.3360  -3.3343  -3.0562  -2.9104
    -2.8736  -2.5531  -2.5145  -2.0601  -2.0332  -1.9250  -1.9097  -1.6736
    -1.6607  -1.6049  -1.5667  -1.4438  -1.1953  -1.0891  -1.0402  -0.9813
    -0.5536  -0.5284  -0.3514  -0.0910   0.0285   0.1010   0.2462   0.3109
     0.3484   0.4186   0.4716   0.6440   0.7108   0.8246   1.1075   1.4506
     1.7042

          k = 0.1250 0.1250 0.0000 ( 48243 PWs)   bands (ev):

    -9.9443  -9.4436  -9.4436  -8.9447  -8.6174  -8.1206  -8.1206  -7.6255
    -6.4965  -6.4771  -6.4771  -6.0050  -6.0050  -5.9902  -5.9902  -5.5151
    -5.1954  -5.1954  -4.9959  -4.9959  -4.7135  -4.7135  -4.5163  -4.5163
    -3.7261  -3.7261  -3.7244  -3.2516  -3.2516  -3.2370  -3.2370  -3.1725
    -3.0965  -3.0965  -2.7519  -2.6194  -2.6194  -2.2569  -1.9167  -1.6886
    -1.6886  -1.4267  -1.2193  -1.2193  -1.0325  -0.9611  -0.9611  -0.8836
    -0.4951  -0.3190  -0.3190  -0.0351   0.1209   0.1459   0.1459   0.5065
     0.5232   0.5886   0.5886   0.9425   0.9425   0.9650   1.3182   1.4015
     1.4015

     the Fermi energy is     0.0825 ev

!    total energy              =   -1421.45148299 Ry
     total all-electron energy =    -17482.591620 Ry
     estimated scf accuracy    <          2.8E-10 Ry
     smearing contrib. (-TS)   =      -0.01814280 Ry
     internal energy E=F+TS    =   -1421.43334019 Ry

     The total energy is F=E-TS. E is the sum of the following terms:
     one-electron contribution =   -1538.66869332 Ry
     hartree contribution      =     795.46330881 Ry
     xc contribution           =     -91.09455439 Ry
     ewald contribution        =     661.27896157 Ry
     one-center paw contrib.   =   -1248.41236286 Ry

     convergence has been achieved in  13 iterations

     negative rho (up, down):  3.623E-05 0.000E+00

     Forces acting on atoms (cartesian axes, Ry/au):

     atom    1 type  1   force =     0.00000000    0.00000000   -0.00625156
     atom    2 type  1   force =     0.00000000   -0.00000001   -0.00625160
     atom    3 type  1   force =     0.00000000    0.00000001   -0.00625160
     atom    4 type  1   force =    -0.00000001    0.00000000   -0.00625160
     atom    5 type  1   force =     0.00000000    0.00000000   -0.00625162
     atom    6 type  1   force =     0.00000000   -0.00000000   -0.00625162
     atom    7 type  1   force =     0.00000001    0.00000000   -0.00625160
     atom    8 type  1   force =    -0.00000000    0.00000000   -0.00625162
     atom    9 type  1   force =    -0.00000000   -0.00000000   -0.00625162
     atom   10 type  1   force =    -0.00000018   -0.00000018    0.00402994
     atom   11 type  1   force =    -0.00000008    0.00000000    0.00402972
     atom   12 type  1   force =    -0.00000018    0.00000018    0.00402994
     atom   13 type  1   force =     0.00000000   -0.00000008    0.00402972
     atom   14 type  1   force =     0.00000000    0.00000000    0.00402965
     atom   15 type  1   force =     0.00000000    0.00000008    0.00402972
     atom   16 type  1   force =     0.00000018   -0.00000018    0.00402994
     atom   17 type  1   force =     0.00000008    0.00000000    0.00402972
     atom   18 type  1   force =     0.00000018    0.00000018    0.00402994
     atom   19 type  1   force =     0.00000000    0.00000000    0.00140127
     atom   20 type  1   force =     0.00000000   -0.00000006    0.00140260
     atom   21 type  1   force =     0.00000000    0.00000006    0.00140260
     atom   22 type  1   force =    -0.00000006    0.00000000    0.00140260
     atom   23 type  1   force =     0.00000001    0.00000001    0.00140298
     atom   24 type  1   force =     0.00000001   -0.00000001    0.00140298
     atom   25 type  1   force =     0.00000006    0.00000000    0.00140260
     atom   26 type  1   force =    -0.00000001    0.00000001    0.00140298
     atom   27 type  1   force =    -0.00000001   -0.00000001    0.00140298
     atom   28 type  1   force =     0.00000021    0.00000021    0.00081921
     atom   29 type  1   force =     0.00000009    0.00000000    0.00081920
     atom   30 type  1   force =     0.00000021   -0.00000021    0.00081921
     atom   31 type  1   force =     0.00000000    0.00000009    0.00081920
     atom   32 type  1   force =     0.00000000    0.00000000    0.00081888
     atom   33 type  1   force =     0.00000000   -0.00000009    0.00081920
     atom   34 type  1   force =    -0.00000021    0.00000021    0.00081921
     atom   35 type  1   force =    -0.00000009    0.00000000    0.00081920
     atom   36 type  1   force =    -0.00000021   -0.00000021    0.00081921

     Total force =     0.004873     Total SCF correction =     0.000024
     Energy error            =      6.1E-05 Ry
     Gradient error          =      1.4E-03 Ry/Bohr

     number of scf cycles    =   4
     number of bfgs steps    =   3

     energy             old  =   -1421.4514219177 Ry
     energy             new  =   -1421.4514829948 Ry

     CASE: energy            _new < energy            _old

     new trust radius        =       0.0045005990 bohr
     new conv_thr            =       0.0000000010 Ry


ATOMIC_POSITIONS (alat)
Al               0.0000000000        0.0000000000        0.0000000000    0   0   0
Al               0.0000000000        0.9999999976        0.0000000000    0   0   0
Al               0.0000000000        1.9999999953        0.0000000000    0   0   0
Al               0.9999999976        0.0000000000        0.0000000000    0   0   0
Al               0.9999999976        0.9999999976        0.0000000000    0   0   0
Al               0.9999999976        1.9999999953        0.0000000000    0   0   0
Al               1.9999999953        0.0000000000        0.0000000000    0   0   0
Al               1.9999999953        0.9999999976        0.0000000000    0   0   0
Al               1.9999999953        1.9999999953        0.0000000000    0   0   0
Al               0.4999999988        0.4999999988        0.7071067673    0   0   0
Al               0.4999999988        1.4999999965        0.7071067673    0   0   0
Al               0.4999999988        2.4999999941        0.7071067673    0   0   0
Al               1.4999999965        0.4999999988        0.7071067673    0   0   0
Al               1.4999999965        1.4999999965        0.7071067673    0   0   0
Al               1.4999999965        2.4999999941        0.7071067673    0   0   0
Al               2.4999999941        0.4999999988        0.7071067673    0   0   0
Al               2.4999999941        1.4999999965        0.7071067673    0   0   0
Al               2.4999999941        2.4999999941        0.7071067673    0   0   0
Al               0.0000000000        0.0000000000        1.4326633978    0   0   1
Al               0.0000000000        0.9999999976        1.4326597606    0   0   1
Al               0.0000000000        1.9999999953        1.4326597606    0   0   1
Al               0.9999999976        0.0000000000        1.4326597606    0   0   1
Al               0.9999999976        0.9999999976        1.4326584096    0   0   1
Al               0.9999999976        1.9999999953        1.4326584096    0   0   1
Al               1.9999999953        0.0000000000        1.4326597606    0   0   1
Al               1.9999999953        0.9999999976        1.4326584096    0   0   1
Al               1.9999999953        1.9999999953        1.4326584096    0   0   1
Al               0.4999999988        0.4999999988        2.1582953913    0   0   1
Al               0.4999999988        1.4999999965        2.1582952497    0   0   1
Al               0.4999999988        2.4999999941        2.1582953913    0   0   1
Al               1.4999999965        0.4999999988        2.1582952497    0   0   1
Al               1.4999999965        1.4999999965        2.1582949022    0   0   1
Al               1.4999999965        2.4999999941        2.1582952497    0   0   1
Al               2.4999999941        0.4999999988        2.1582953913    0   0   1
Al               2.4999999941        1.4999999965        2.1582952497    0   0   1
Al               2.4999999941        2.4999999941        2.1582953913    0   0   1



     Writing config-only to output data dir ./tmp/Al.save/ :
     XML data file
     NEW-OLD atomic charge density approx. for the potential

     negative rho (up, down):  3.615E-05 0.000E+00

     total cpu time spent up to now is      374.6 secs

     Self-consistent Calculation

     iteration #  1     ecut=    40.00 Ry     beta= 0.50
     Davidson diagonalization with overlap
     ethr =  1.00E-06,  avg # of iterations =  2.0

     Threshold (ethr) on eigenvalues was too large:
     Diagonalizing with lowered threshold

     Davidson diagonalization with overlap
     ethr =  6.56E-09,  avg # of iterations =  6.7

     negative rho (up, down):  3.540E-05 0.000E+00

     total cpu time spent up to now is      389.9 secs

     total energy              =   -1421.45155655 Ry
     estimated scf accuracy    <       0.00001656 Ry

     iteration #  2     ecut=    40.00 Ry     beta= 0.50
     Davidson diagonalization with overlap
     ethr =  1.53E-08,  avg # of iterations =  1.0

     negative rho (up, down):  3.640E-05 0.000E+00

     total cpu time spent up to now is      396.9 secs

     total energy              =   -1421.45155477 Ry
     estimated scf accuracy    <       0.00000768 Ry

     iteration #  3     ecut=    40.00 Ry     beta= 0.50
     Davidson diagonalization with overlap
     ethr =  7.12E-09,  avg # of iterations =  4.3

     negative rho (up, down):  3.723E-05 0.000E+00

     total cpu time spent up to now is      405.0 secs

     total energy              =   -1421.45155609 Ry
     estimated scf accuracy    <       0.00000139 Ry

     iteration #  4     ecut=    40.00 Ry     beta= 0.50
     Davidson diagonalization with overlap
     ethr =  1.28E-09,  avg # of iterations =  2.0

     negative rho (up, down):  3.705E-05 0.000E+00

     total cpu time spent up to now is      412.0 secs

     total energy              =   -1421.45155618 Ry
     estimated scf accuracy    <       0.00000027 Ry

     iteration #  5     ecut=    40.00 Ry     beta= 0.50
     Davidson diagonalization with overlap
     ethr =  2.50E-10,  avg # of iterations =  4.7

     negative rho (up, down):  3.551E-05 0.000E+00

     total cpu time spent up to now is      419.5 secs

     total energy              =   -1421.45155619 Ry
     estimated scf accuracy    <       0.00000019 Ry

     iteration #  6     ecut=    40.00 Ry     beta= 0.50
     Davidson diagonalization with overlap
     ethr =  1.75E-10,  avg # of iterations =  5.0

     negative rho (up, down):  3.466E-05 0.000E+00

     total cpu time spent up to now is      426.7 secs

     total energy              =   -1421.45155622 Ry
     estimated scf accuracy    <       0.00000005 Ry

     iteration #  7     ecut=    40.00 Ry     beta= 0.50
     Davidson diagonalization with overlap
     ethr =  5.00E-11,  avg # of iterations =  5.0

     negative rho (up, down):  3.664E-05 0.000E+00

     total cpu time spent up to now is      435.3 secs

     total energy              =   -1421.45155625 Ry
     estimated scf accuracy    <       0.00000016 Ry

     iteration #  8     ecut=    40.00 Ry     beta= 0.50
     Davidson diagonalization with overlap
     ethr =  5.00E-11,  avg # of iterations =  1.3

     negative rho (up, down):  3.709E-05 0.000E+00

     total cpu time spent up to now is      442.5 secs

     total energy              =   -1421.45155624 Ry
     estimated scf accuracy    <       0.00000007 Ry

     iteration #  9     ecut=    40.00 Ry     beta= 0.50
     Davidson diagonalization with overlap
     ethr =  5.00E-11,  avg # of iterations =  1.3

     negative rho (up, down):  3.661E-05 0.000E+00

     total cpu time spent up to now is      449.7 secs

     total energy              =   -1421.45155622 Ry
     estimated scf accuracy    <       0.00000003 Ry

     iteration # 10     ecut=    40.00 Ry     beta= 0.50
     Davidson diagonalization with overlap
     ethr =  2.75E-11,  avg # of iterations =  2.0

     negative rho (up, down):  3.654E-05 0.000E+00

     total cpu time spent up to now is      456.9 secs

     total energy              =   -1421.45155623 Ry
     estimated scf accuracy    <          9.0E-09 Ry

     iteration # 11     ecut=    40.00 Ry     beta= 0.50
     Davidson diagonalization with overlap
     ethr =  8.37E-12,  avg # of iterations =  5.7

     negative rho (up, down):  3.654E-05 0.000E+00

     total cpu time spent up to now is      465.7 secs

     total energy              =   -1421.45155623 Ry
     estimated scf accuracy    <          3.1E-09 Ry

     iteration # 12     ecut=    40.00 Ry     beta= 0.50
     Davidson diagonalization with overlap
     ethr =  2.90E-12,  avg # of iterations =  3.0

     negative rho (up, down):  3.650E-05 0.000E+00

     total cpu time spent up to now is      472.7 secs

     total energy              =   -1421.45155623 Ry
     estimated scf accuracy    <          1.3E-09 Ry

     iteration # 13     ecut=    40.00 Ry     beta= 0.50
     Davidson diagonalization with overlap
     ethr =  1.21E-12,  avg # of iterations =  4.0

     negative rho (up, down):  3.627E-05 0.000E+00

     total cpu time spent up to now is      478.9 secs

     End of self-consistent calculation

          k = 0.0417 0.0417 0.0000 ( 48283 PWs)   bands (ev):

   -10.4432  -9.1153  -8.9413  -8.9413  -7.9487  -7.9487  -7.6251  -7.6251
    -7.4555  -6.9888  -6.6405  -6.6405  -6.4748  -6.4748  -6.1506  -5.5145
    -5.5145  -5.5041  -5.1780  -5.1780  -4.5411  -4.5411  -4.2159  -4.2158
    -4.0559  -3.5649  -3.5649  -3.0947  -3.0947  -2.7574  -2.7574  -2.2913
    -2.2913  -2.2201  -2.2201  -2.1448  -1.8959  -1.8082  -1.8082  -1.7908
    -1.6605  -1.6605  -1.3203  -0.9674  -0.9674  -0.8648  -0.5841  -0.5841
    -0.5693  -0.4028  -0.3875  -0.3875  -0.3077  -0.3077  -0.1974  -0.1974
     0.3565   0.4097   0.4097   0.5700   0.5919   0.8674   0.9149   0.9938
     0.9938

          k = 0.0417 0.1250 0.0000 ( 48328 PWs)   bands (ev):

   -10.1918  -9.6902  -8.8658  -8.6924  -8.3682  -8.1962  -7.7017  -7.3781
    -7.2093  -6.8856  -6.7419  -6.7180  -6.3953  -6.2496  -5.9066  -5.4362
    -5.2701  -5.2617  -5.2343  -4.7829  -4.3095  -4.2985  -3.9951  -3.9705
    -3.9647  -3.8150  -3.8053  -3.4820  -3.3348  -3.3307  -3.0548  -2.9074
    -2.8700  -2.5524  -2.5156  -2.0593  -2.0343  -1.9238  -1.9085  -1.6729
    -1.6618  -1.6041  -1.5678  -1.4402  -1.1964  -1.0902  -1.0366  -0.9801
    -0.5549  -0.5272  -0.3516  -0.0911   0.0295   0.1010   0.2495   0.3106
     0.3500   0.4222   0.4727   0.6429   0.7096   0.8235   1.1065   1.4529
     1.7059

          k = 0.1250 0.1250 0.0000 ( 48243 PWs)   bands (ev):

    -9.9408  -9.4401  -9.4401  -8.9412  -8.6168  -8.1200  -8.1200  -7.6248
    -6.4954  -6.4735  -6.4735  -6.0039  -6.0039  -5.9866  -5.9866  -5.5140
    -5.1942  -5.1942  -4.9928  -4.9928  -4.7123  -4.7123  -4.5132  -4.5132
    -3.7256  -3.7254  -3.7254  -3.2509  -3.2509  -3.2382  -3.2382  -3.1688
    -3.0953  -3.0953  -2.7531  -2.6182  -2.6182  -2.2533  -1.9159  -1.6874
    -1.6874  -1.4278  -1.2181  -1.2181  -1.0317  -0.9622  -0.9622  -0.8801
    -0.4961  -0.3203  -0.3203  -0.0316   0.1225   0.1446   0.1446   0.5071
     0.5269   0.5922   0.5922   0.9412   0.9412   0.9666   1.3190   1.4003
     1.4003

     the Fermi energy is     0.0831 ev

!    total energy              =   -1421.45155623 Ry
     total all-electron energy =    -17482.591693 Ry
     estimated scf accuracy    <          5.2E-10 Ry
     smearing contrib. (-TS)   =      -0.01792669 Ry
     internal energy E=F+TS    =   -1421.43362954 Ry

     The total energy is F=E-TS. E is the sum of the following terms:
     one-electron contribution =   -1537.93791033 Ry
     hartree contribution      =     795.09937363 Ry
     xc contribution           =     -91.08924055 Ry
     ewald contribution        =     660.90572626 Ry
     one-center paw contrib.   =   -1248.41157855 Ry

     convergence has been achieved in  13 iterations

     negative rho (up, down):  3.627E-05 0.000E+00

     Forces acting on atoms (cartesian axes, Ry/au):

     atom    1 type  1   force =     0.00000000    0.00000000   -0.00623461
     atom    2 type  1   force =     0.00000000    0.00000000   -0.00623463
     atom    3 type  1   force =     0.00000000   -0.00000000   -0.00623463
     atom    4 type  1   force =     0.00000000    0.00000000   -0.00623463
     atom    5 type  1   force =     0.00000000    0.00000000   -0.00623465
     atom    6 type  1   force =     0.00000000   -0.00000000   -0.00623465
     atom    7 type  1   force =    -0.00000000    0.00000000   -0.00623463
     atom    8 type  1   force =    -0.00000000    0.00000000   -0.00623465
     atom    9 type  1   force =    -0.00000000   -0.00000000   -0.00623465
     atom   10 type  1   force =    -0.00000022   -0.00000022    0.00420277
     atom   11 type  1   force =    -0.00000015    0.00000000    0.00420245
     atom   12 type  1   force =    -0.00000022    0.00000022    0.00420277
     atom   13 type  1   force =     0.00000000   -0.00000015    0.00420245
     atom   14 type  1   force =     0.00000000    0.00000000    0.00420226
     atom   15 type  1   force =     0.00000000    0.00000015    0.00420245
     atom   16 type  1   force =     0.00000022   -0.00000022    0.00420277
     atom   17 type  1   force =     0.00000015    0.00000000    0.00420245
     atom   18 type  1   force =     0.00000022    0.00000022    0.00420277
     atom   19 type  1   force =     0.00000000    0.00000000    0.00128273
     atom   20 type  1   force =     0.00000000   -0.00000004    0.00128432
     atom   21 type  1   force =     0.00000000    0.00000004    0.00128432
     atom   22 type  1   force =    -0.00000004    0.00000000    0.00128432
     atom   23 type  1   force =    -0.00000006   -0.00000006    0.00128492
     atom   24 type  1   force =    -0.00000006    0.00000006    0.00128492
     atom   25 type  1   force =     0.00000004    0.00000000    0.00128432
     atom   26 type  1   force =     0.00000006   -0.00000006    0.00128492
     atom   27 type  1   force =     0.00000006    0.00000006    0.00128492
     atom   28 type  1   force =     0.00000024    0.00000024    0.00074779
     atom   29 type  1   force =     0.00000014    0.00000000    0.00074755
     atom   30 type  1   force =     0.00000024   -0.00000024    0.00074779
     atom   31 type  1   force =     0.00000000    0.00000014    0.00074755
     atom   32 type  1   force =     0.00000000    0.00000000    0.00074750
     atom   33 type  1   force =     0.00000000   -0.00000014    0.00074755
     atom   34 type  1   force =    -0.00000024    0.00000024    0.00074779
     atom   35 type  1   force =    -0.00000014    0.00000000    0.00074755
     atom   36 type  1   force =    -0.00000024   -0.00000024    0.00074779

     Total force =     0.004459     Total SCF correction =     0.000032
     Energy error            =      7.3E-05 Ry
     Gradient error          =      1.3E-03 Ry/Bohr

     number of scf cycles    =   5
     number of bfgs steps    =   4

     energy             old  =   -1421.4514829948 Ry
     energy             new  =   -1421.4515562291 Ry

     CASE: energy            _new < energy            _old

     new trust radius        =       0.0067508984 bohr
     new conv_thr            =       0.0000000010 Ry


ATOMIC_POSITIONS (alat)
Al               0.0000000000        0.0000000000        0.0000000000    0   0   0
Al               0.0000000000        0.9999999976        0.0000000000    0   0   0
Al               0.0000000000        1.9999999952        0.0000000000    0   0   0
Al               0.9999999976        0.0000000000        0.0000000000    0   0   0
Al               0.9999999976        0.9999999976        0.0000000000    0   0   0
Al               0.9999999976        1.9999999952        0.0000000000    0   0   0
Al               1.9999999952        0.0000000000        0.0000000000    0   0   0
Al               1.9999999952        0.9999999976        0.0000000000    0   0   0
Al               1.9999999952        1.9999999952        0.0000000000    0   0   0
Al               0.4999999988        0.4999999988        0.7071067673    0   0   0
Al               0.4999999988        1.4999999964        0.7071067673    0   0   0
Al               0.4999999988        2.4999999940        0.7071067673    0   0   0
Al               1.4999999964        0.4999999988        0.7071067673    0   0   0
Al               1.4999999964        1.4999999964        0.7071067673    0   0   0
Al               1.4999999964        2.4999999940        0.7071067673    0   0   0
Al               2.4999999940        0.4999999988        0.7071067673    0   0   0
Al               2.4999999940        1.4999999964        0.7071067673    0   0   0
Al               2.4999999940        2.4999999940        0.7071067673    0   0   0
Al               0.0000000000        0.0000000000        1.4336272348    0   0   1
Al               0.0000000000        0.9999999976        1.4336231906    0   0   1
Al               0.0000000000        1.9999999952        1.4336231906    0   0   1
Al               0.9999999976        0.0000000000        1.4336231906    0   0   1
Al               0.9999999976        0.9999999976        1.4336210867    0   0   1
Al               0.9999999976        1.9999999952        1.4336210867    0   0   1
Al               1.9999999952        0.0000000000        1.4336231906    0   0   1
Al               1.9999999952        0.9999999976        1.4336210867    0   0   1
Al               1.9999999952        1.9999999952        1.4336210867    0   0   1
Al               0.4999999988        0.4999999988        2.1595460694    0   0   1
Al               0.4999999988        1.4999999964        2.1595467110    0   0   1
Al               0.4999999988        2.4999999940        2.1595460694    0   0   1
Al               1.4999999964        0.4999999988        2.1595467110    0   0   1
Al               1.4999999964        1.4999999964        2.1595442505    0   0   1
Al               1.4999999964        2.4999999940        2.1595467110    0   0   1
Al               2.4999999940        0.4999999988        2.1595460694    0   0   1
Al               2.4999999940        1.4999999964        2.1595467110    0   0   1
Al               2.4999999940        2.4999999940        2.1595460694    0   0   1



     Writing config-only to output data dir ./tmp/Al.save/ :
     XML data file
     NEW-OLD atomic charge density approx. for the potential

     negative rho (up, down):  3.615E-05 0.000E+00

     total cpu time spent up to now is      485.4 secs

     Self-consistent Calculation

     iteration #  1     ecut=    40.00 Ry     beta= 0.50
     Davidson diagonalization with overlap
     ethr =  1.00E-06,  avg # of iterations =  2.0

     Threshold (ethr) on eigenvalues was too large:
     Diagonalizing with lowered threshold

     Davidson diagonalization with overlap
     ethr =  1.16E-08,  avg # of iterations =  7.3

     negative rho (up, down):  3.507E-05 0.000E+00

     total cpu time spent up to now is      501.6 secs

     total energy              =   -1421.45165497 Ry
     estimated scf accuracy    <       0.00003852 Ry

     iteration #  2     ecut=    40.00 Ry     beta= 0.50
     Davidson diagonalization with overlap
     ethr =  3.57E-08,  avg # of iterations =  1.0

     negative rho (up, down):  3.723E-05 0.000E+00

     total cpu time spent up to now is      508.6 secs

     total energy              =   -1421.45165144 Ry
     estimated scf accuracy    <       0.00001679 Ry

     iteration #  3     ecut=    40.00 Ry     beta= 0.50
     Davidson diagonalization with overlap
     ethr =  1.56E-08,  avg # of iterations =  4.7

     negative rho (up, down):  3.785E-05 0.000E+00

     total cpu time spent up to now is      516.6 secs

     total energy              =   -1421.45165423 Ry
     estimated scf accuracy    <       0.00000166 Ry

     iteration #  4     ecut=    40.00 Ry     beta= 0.50
     Davidson diagonalization with overlap
     ethr =  1.53E-09,  avg # of iterations =  4.0

     negative rho (up, down):  3.775E-05 0.000E+00

     total cpu time spent up to now is      524.4 secs

     total energy              =   -1421.45165439 Ry
     estimated scf accuracy    <       0.00000073 Ry

     iteration #  5     ecut=    40.00 Ry     beta= 0.50
     Davidson diagonalization with overlap
     ethr =  6.72E-10,  avg # of iterations =  1.7

     negative rho (up, down):  3.561E-05 0.000E+00

     total cpu time spent up to now is      531.4 secs

     total energy              =   -1421.45165429 Ry
     estimated scf accuracy    <       0.00000046 Ry

     iteration #  6     ecut=    40.00 Ry     beta= 0.50
     Davidson diagonalization with overlap
     ethr =  4.24E-10,  avg # of iterations =  5.0

     negative rho (up, down):  3.586E-05 0.000E+00

     total cpu time spent up to now is      539.4 secs

     total energy              =   -1421.45165440 Ry
     estimated scf accuracy    <       0.00000002 Ry

     iteration #  7     ecut=    40.00 Ry     beta= 0.50
     Davidson diagonalization with overlap
     ethr =  1.69E-11,  avg # of iterations = 10.7

     negative rho (up, down):  3.617E-05 0.000E+00

     total cpu time spent up to now is      549.3 secs

     total energy              =   -1421.45165441 Ry
     estimated scf accuracy    <       0.00000007 Ry

     iteration #  8     ecut=    40.00 Ry     beta= 0.50
     Davidson diagonalization with overlap
     ethr =  1.69E-11,  avg # of iterations =  1.7

     negative rho (up, down):  3.675E-05 0.000E+00

     total cpu time spent up to now is      556.3 secs

     total energy              =   -1421.45165440 Ry
     estimated scf accuracy    <       0.00000005 Ry

     iteration #  9     ecut=    40.00 Ry     beta= 0.50
     Davidson diagonalization with overlap
     ethr =  1.69E-11,  avg # of iterations =  4.0

     negative rho (up, down):  3.664E-05 0.000E+00

     total cpu time spent up to now is      564.2 secs

     total energy              =   -1421.45165440 Ry
     estimated scf accuracy    <          2.8E-09 Ry

     iteration # 10     ecut=    40.00 Ry     beta= 0.50
     Davidson diagonalization with overlap
     ethr =  2.62E-12,  avg # of iterations =  5.0

     negative rho (up, down):  3.633E-05 0.000E+00

     total cpu time spent up to now is      571.2 secs

     End of self-consistent calculation

          k = 0.0417 0.0417 0.0000 ( 48283 PWs)   bands (ev):

   -10.4379  -9.1143  -8.9360  -8.9360  -7.9434  -7.9434  -7.6241  -7.6241
    -7.4501  -6.9872  -6.6394  -6.6394  -6.4694  -6.4694  -6.1496  -5.5129
    -5.5129  -5.4987  -5.1769  -5.1769  -4.5394  -4.5394  -4.2178  -4.2147
    -4.0543  -3.5595  -3.5595  -3.0930  -3.0930  -2.7592  -2.7591  -2.2902
    -2.2902  -2.2146  -2.2146  -2.1430  -1.8976  -1.8099  -1.8099  -1.7853
    -1.6552  -1.6552  -1.3219  -0.9664  -0.9664  -0.8592  -0.5846  -0.5846
    -0.5682  -0.3974  -0.3890  -0.3890  -0.3078  -0.3078  -0.1959  -0.1959
     0.3576   0.4080   0.4080   0.5681   0.5970   0.8661   0.9161   0.9990
     0.9990

          k = 0.0417 0.1250 0.0000 ( 48328 PWs)   bands (ev):

   -10.1865  -9.6849  -8.8649  -8.6871  -8.3672  -8.1909  -7.6964  -7.3771
    -7.2040  -6.8846  -6.7403  -6.7126  -6.3943  -6.2479  -5.9056  -5.4345
[...]
Al               1.9999999862        0.0000000000        1.4395907441    0   0   1
Al               1.9999999862        0.9999999930        1.4395849470    0   0   1
Al               1.9999999862        1.9999999862        1.4395849470    0   0   1
Al               0.4999999965        0.4999999965        2.1672697996    0   0   1
Al               0.4999999965        1.4999999897        2.1672743514    0   0   1
Al               0.4999999965        2.4999999827        2.1672697996    0   0   1
Al               1.4999999897        0.4999999965        2.1672743514    0   0   1
Al               1.4999999897        1.4999999897        2.1672602758    0   0   1
Al               1.4999999897        2.4999999827        2.1672743514    0   0   1
Al               2.4999999827        0.4999999965        2.1672697996    0   0   1
Al               2.4999999827        1.4999999897        2.1672743514    0   0   1
Al               2.4999999827        2.4999999827        2.1672697996    0   0   1



     Writing config-only to output data dir ./tmp/Al.save/ :
     XML data file
     NEW-OLD atomic charge density approx. for the potential

     negative rho (up, down):  3.639E-05 0.000E+00

     total cpu time spent up to now is      773.4 secs

     Self-consistent Calculation

     iteration #  1     ecut=    40.00 Ry     beta= 0.50
     Davidson diagonalization with overlap
     ethr =  1.00E-06,  avg # of iterations =  5.0

     Threshold (ethr) on eigenvalues was too large:
     Diagonalizing with lowered threshold

     Davidson diagonalization with overlap
     ethr =  2.57E-08,  avg # of iterations =  8.0

     negative rho (up, down):  3.383E-05 0.000E+00

     total cpu time spent up to now is      790.1 secs

     total energy              =   -1421.45193764 Ry
     estimated scf accuracy    <       0.00020779 Ry

     iteration #  2     ecut=    40.00 Ry     beta= 0.50
     Davidson diagonalization with overlap
     ethr =  1.92E-07,  avg # of iterations =  1.0

     negative rho (up, down):  3.572E-05 0.000E+00

     total cpu time spent up to now is      797.2 secs

     total energy              =   -1421.45191991 Ry
     estimated scf accuracy    <       0.00008775 Ry

     iteration #  3     ecut=    40.00 Ry     beta= 0.50
     Davidson diagonalization with overlap
     ethr =  8.12E-08,  avg # of iterations =  4.3

     negative rho (up, down):  3.751E-05 0.000E+00

     total cpu time spent up to now is      805.5 secs

     total energy              =   -1421.45193417 Ry
     estimated scf accuracy    <       0.00000840 Ry

     iteration #  4     ecut=    40.00 Ry     beta= 0.50
     Davidson diagonalization with overlap
     ethr =  7.78E-09,  avg # of iterations =  4.0

     negative rho (up, down):  3.731E-05 0.000E+00

     total cpu time spent up to now is      813.3 secs

     total energy              =   -1421.45193490 Ry
     estimated scf accuracy    <       0.00000353 Ry

     iteration #  5     ecut=    40.00 Ry     beta= 0.50
     Davidson diagonalization with overlap
     ethr =  3.27E-09,  avg # of iterations =  3.3

     negative rho (up, down):  3.396E-05 0.000E+00

     total cpu time spent up to now is      820.6 secs

     total energy              =   -1421.45193468 Ry
     estimated scf accuracy    <       0.00000211 Ry

     iteration #  6     ecut=    40.00 Ry     beta= 0.50
     Davidson diagonalization with overlap
     ethr =  1.95E-09,  avg # of iterations =  5.0

     negative rho (up, down):  3.427E-05 0.000E+00

     total cpu time spent up to now is      828.5 secs

     total energy              =   -1421.45193495 Ry
     estimated scf accuracy    <       0.00000005 Ry

     iteration #  7     ecut=    40.00 Ry     beta= 0.50
     Davidson diagonalization with overlap
     ethr =  4.66E-11,  avg # of iterations =  8.3

     negative rho (up, down):  3.537E-05 0.000E+00

     total cpu time spent up to now is      839.1 secs

     total energy              =   -1421.45193505 Ry
     estimated scf accuracy    <       0.00000007 Ry

     iteration #  8     ecut=    40.00 Ry     beta= 0.50
     Davidson diagonalization with overlap
     ethr =  4.66E-11,  avg # of iterations =  2.0

     negative rho (up, down):  3.683E-05 0.000E+00

     total cpu time spent up to now is      846.4 secs

     total energy              =   -1421.45193504 Ry
     estimated scf accuracy    <       0.00000010 Ry

     iteration #  9     ecut=    40.00 Ry     beta= 0.50
     Davidson diagonalization with overlap
     ethr =  4.66E-11,  avg # of iterations =  2.0

     negative rho (up, down):  3.683E-05 0.000E+00

     total cpu time spent up to now is      853.3 secs

     total energy              =   -1421.45193504 Ry
     estimated scf accuracy    <       0.00000004 Ry

     iteration # 10     ecut=    40.00 Ry     beta= 0.50
     Davidson diagonalization with overlap
     ethr =  3.43E-11,  avg # of iterations =  1.0

     negative rho (up, down):  3.669E-05 0.000E+00

     total cpu time spent up to now is      860.3 secs

     total energy              =   -1421.45193504 Ry
     estimated scf accuracy    <       0.00000004 Ry

     iteration # 11     ecut=    40.00 Ry     beta= 0.50
     Davidson diagonalization with overlap
     ethr =  3.26E-11,  avg # of iterations =  1.0

     negative rho (up, down):  3.724E-05 0.000E+00

     total cpu time spent up to now is      867.2 secs

     total energy              =   -1421.45193504 Ry
     estimated scf accuracy    <       0.00000004 Ry

     iteration # 12     ecut=    40.00 Ry     beta= 0.50
     Davidson diagonalization with overlap
     ethr =  3.26E-11,  avg # of iterations =  3.3

     negative rho (up, down):  3.687E-05 0.000E+00

     total cpu time spent up to now is      875.0 secs

     total energy              =   -1421.45193505 Ry
     estimated scf accuracy    <          8.6E-09 Ry

     iteration # 13     ecut=    40.00 Ry     beta= 0.50
     Davidson diagonalization with overlap
     ethr =  7.94E-12,  avg # of iterations =  1.7

     negative rho (up, down):  3.681E-05 0.000E+00

     total cpu time spent up to now is      881.9 secs

     total energy              =   -1421.45193502 Ry
     estimated scf accuracy    <          2.3E-09 Ry

     iteration # 14     ecut=    40.00 Ry     beta= 0.50
     Davidson diagonalization with overlap
     ethr =  2.14E-12,  avg # of iterations =  4.3

     negative rho (up, down):  3.672E-05 0.000E+00

     total cpu time spent up to now is      889.5 secs

     total energy              =   -1421.45193503 Ry
     estimated scf accuracy    <          1.4E-09 Ry

     iteration # 15     ecut=    40.00 Ry     beta= 0.50
     Davidson diagonalization with overlap
     ethr =  1.34E-12,  avg # of iterations =  1.7

     negative rho (up, down):  3.668E-05 0.000E+00

     total cpu time spent up to now is      896.4 secs

     total energy              =   -1421.45193503 Ry
     estimated scf accuracy    <          1.4E-09 Ry

     iteration # 16     ecut=    40.00 Ry     beta= 0.50
     Davidson diagonalization with overlap
     ethr =  1.28E-12,  avg # of iterations =  1.0

     negative rho (up, down):  3.667E-05 0.000E+00

     total cpu time spent up to now is      903.2 secs

     total energy              =   -1421.45193503 Ry
     estimated scf accuracy    <          1.2E-09 Ry

     iteration # 17     ecut=    40.00 Ry     beta= 0.50
     Davidson diagonalization with overlap
     ethr =  1.10E-12,  avg # of iterations =  1.0

     negative rho (up, down):  3.666E-05 0.000E+00

     total cpu time spent up to now is      910.2 secs

     total energy              =   -1421.45193503 Ry
     estimated scf accuracy    <          1.2E-09 Ry

     iteration # 18     ecut=    40.00 Ry     beta= 0.50
     Davidson diagonalization with overlap
     ethr =  1.09E-12,  avg # of iterations =  1.0

     negative rho (up, down):  3.657E-05 0.000E+00

     total cpu time spent up to now is      917.1 secs

     total energy              =   -1421.45193505 Ry
     estimated scf accuracy    <          1.0E-09 Ry

     iteration # 19     ecut=    40.00 Ry     beta= 0.50
     Davidson diagonalization with overlap
     ethr =  9.43E-13,  avg # of iterations =  6.0

     negative rho (up, down):  3.663E-05 0.000E+00

     total cpu time spent up to now is      924.2 secs

     End of self-consistent calculation

          k = 0.0417 0.0417 0.0000 ( 48283 PWs)   bands (ev):

   -10.4053  -9.1083  -8.9033  -8.9033  -7.9107  -7.9107  -7.6178  -7.6178
    -7.4173  -6.9771  -6.6331  -6.6331  -6.4365  -6.4365  -6.1432  -5.5025
    -5.5025  -5.4656  -5.1704  -5.1704  -4.5289  -4.5289  -4.2295  -4.2081
    -4.0435  -3.5262  -3.5262  -3.0820  -3.0820  -2.7699  -2.7699  -2.2837
    -2.2837  -2.1809  -2.1809  -2.1316  -1.9080  -1.8204  -1.8204  -1.7513
    -1.6224  -1.6224  -1.3318  -0.9598  -0.9598  -0.8251  -0.5878  -0.5878
    -0.5616  -0.3982  -0.3982  -0.3639  -0.3083  -0.3083  -0.1862  -0.1862
     0.3642   0.3981   0.3981   0.5565   0.6283   0.8582   0.9234   1.0310
     1.0310

          k = 0.0417 0.1250 0.0000 ( 48328 PWs)   bands (ev):

   -10.1539  -9.6523  -8.8587  -8.6544  -8.3611  -8.1582  -7.6637  -7.3708
    -7.1712  -6.8783  -6.7302  -6.6798  -6.3879  -6.2377  -5.8992  -5.4249
    -5.2580  -5.2233  -5.1999  -4.7707  -4.2862  -4.2708  -3.9840  -3.9829
    -3.9576  -3.8026  -3.7713  -3.4952  -3.3219  -3.2919  -3.0415  -2.8740
    -2.8311  -2.5448  -2.5279  -2.0517  -2.0464  -1.9105  -1.8953  -1.6739
    -1.6651  -1.5965  -1.5799  -1.4021  -1.2081  -1.1022  -0.9982  -0.9665
    -0.5692  -0.5133  -0.3548  -0.0920   0.0409   0.1003   0.2852   0.3076
     0.3685   0.4612   0.4847   0.6314   0.6961   0.8110   1.0953   1.4765
     1.7210

          k = 0.1250 0.1250 0.0000 ( 48243 PWs)   bands (ev):

    -9.9028  -9.4022  -9.4021  -8.9032  -8.6096  -8.1128  -8.1128  -7.6176
    -6.4837  -6.4353  -6.4353  -5.9920  -5.9920  -5.9483  -5.9483  -5.5020
    -5.1828  -5.1828  -4.9585  -4.9585  -4.7006  -4.7006  -4.4790  -4.4790
    -3.7390  -3.7182  -3.7182  -3.2514  -3.2514  -3.2435  -3.2435  -3.1298
    -3.0824  -3.0824  -2.7660  -2.6052  -2.6052  -2.2138  -1.9073  -1.6740
    -1.6740  -1.4397  -1.2046  -1.2046  -1.0240  -0.9738  -0.9738  -0.8424
    -0.5075  -0.3345  -0.3345   0.0061   0.1307   0.1307   0.1400   0.5129
     0.5668   0.6315   0.6315   0.9278   0.9278   0.9833   1.3270   1.3869
     1.3869

     the Fermi energy is     0.0886 ev

!    total energy              =   -1421.45193505 Ry
     total all-electron energy =    -17482.592072 Ry
     estimated scf accuracy    <          3.2E-10 Ry
     smearing contrib. (-TS)   =      -0.01561767 Ry
     internal energy E=F+TS    =   -1421.43631737 Ry

     The total energy is F=E-TS. E is the sum of the following terms:
     one-electron contribution =   -1530.06145785 Ry
     hartree contribution      =     791.17598116 Ry
     xc contribution           =     -91.03250090 Ry
     ewald contribution        =     656.88497429 Ry
     one-center paw contrib.   =   -1248.40331408 Ry

     convergence has been achieved in  19 iterations

     negative rho (up, down):  3.663E-05 0.000E+00

     Forces acting on atoms (cartesian axes, Ry/au):

     atom    1 type  1   force =     0.00000000    0.00000000   -0.00603771
     atom    2 type  1   force =     0.00000000    0.00000001   -0.00603782
     atom    3 type  1   force =     0.00000000   -0.00000001   -0.00603782
     atom    4 type  1   force =     0.00000001    0.00000000   -0.00603782
     atom    5 type  1   force =    -0.00000004   -0.00000004   -0.00603785
     atom    6 type  1   force =    -0.00000004    0.00000004   -0.00603785
     atom    7 type  1   force =    -0.00000001    0.00000000   -0.00603782
     atom    8 type  1   force =     0.00000004   -0.00000004   -0.00603785
     atom    9 type  1   force =     0.00000004    0.00000004   -0.00603785
     atom   10 type  1   force =    -0.00000048   -0.00000048    0.00602923
     atom   11 type  1   force =    -0.00000048    0.00000000    0.00602877
     atom   12 type  1   force =    -0.00000048    0.00000048    0.00602923
     atom   13 type  1   force =     0.00000000   -0.00000048    0.00602877
     atom   14 type  1   force =     0.00000000    0.00000000    0.00602776
     atom   15 type  1   force =     0.00000000    0.00000048    0.00602877
     atom   16 type  1   force =     0.00000048   -0.00000048    0.00602923
     atom   17 type  1   force =     0.00000048    0.00000000    0.00602877
     atom   18 type  1   force =     0.00000048    0.00000048    0.00602923
     atom   19 type  1   force =     0.00000000    0.00000000    0.00001547
     atom   20 type  1   force =     0.00000000    0.00000039    0.00001814
     atom   21 type  1   force =     0.00000000   -0.00000039    0.00001814
     atom   22 type  1   force =     0.00000039    0.00000000    0.00001814
     atom   23 type  1   force =    -0.00000052   -0.00000052    0.00002006
     atom   24 type  1   force =    -0.00000052    0.00000052    0.00002006
     atom   25 type  1   force =    -0.00000039    0.00000000    0.00001814
     atom   26 type  1   force =     0.00000052   -0.00000052    0.00002006
     atom   27 type  1   force =     0.00000052    0.00000052    0.00002006
     atom   28 type  1   force =     0.00000055    0.00000055   -0.00000909
     atom   29 type  1   force =     0.00000047    0.00000000   -0.00001088
     atom   30 type  1   force =     0.00000055   -0.00000055   -0.00000909
     atom   31 type  1   force =     0.00000000    0.00000047   -0.00001088
     atom   32 type  1   force =     0.00000000    0.00000000   -0.00000781
     atom   33 type  1   force =     0.00000000   -0.00000047   -0.00001088
     atom   34 type  1   force =    -0.00000055    0.00000055   -0.00000909
     atom   35 type  1   force =    -0.00000047    0.00000000   -0.00001088
     atom   36 type  1   force =    -0.00000055   -0.00000055   -0.00000909

     Total force =     0.000063     Total SCF correction =     0.000020
     SCF correction compared to forces is large: reduce conv_thr to get better values
     Energy error            =      4.4E-05 Ry
     Gradient error          =      2.0E-05 Ry/Bohr

     bfgs converged in   9 scf cycles and   8 bfgs steps
     (criteria: energy <  1.0E-04 Ry, force <  1.0E-03 Ry/Bohr)

     End of BFGS Geometry Optimization

     Final energy             =   -1421.4519350469 Ry

     File ./tmp/Al.bfgs deleted, as requested
Begin final coordinates

ATOMIC_POSITIONS (alat)
Al               0.0000000000        0.0000000000        0.0000000000    0   0   0
Al               0.0000000000        0.9999999930        0.0000000000    0   0   0
Al               0.0000000000        1.9999999862        0.0000000000    0   0   0
Al               0.9999999930        0.0000000000        0.0000000000    0   0   0
Al               0.9999999930        0.9999999930        0.0000000000    0   0   0
Al               0.9999999930        1.9999999862        0.0000000000    0   0   0
Al               1.9999999862        0.0000000000        0.0000000000    0   0   0
Al               1.9999999862        0.9999999930        0.0000000000    0   0   0
Al               1.9999999862        1.9999999862        0.0000000000    0   0   0
Al               0.4999999965        0.4999999965        0.7071067641    0   0   0
Al               0.4999999965        1.4999999897        0.7071067641    0   0   0
Al               0.4999999965        2.4999999827        0.7071067641    0   0   0
Al               1.4999999897        0.4999999965        0.7071067641    0   0   0
Al               1.4999999897        1.4999999897        0.7071067641    0   0   0
Al               1.4999999897        2.4999999827        0.7071067641    0   0   0
Al               2.4999999827        0.4999999965        0.7071067641    0   0   0
Al               2.4999999827        1.4999999897        0.7071067641    0   0   0
Al               2.4999999827        2.4999999827        0.7071067641    0   0   0
Al               0.0000000000        0.0000000000        1.4395957827    0   0   1
Al               0.0000000000        0.9999999930        1.4395907441    0   0   1
Al               0.0000000000        1.9999999862        1.4395907441    0   0   1
Al               0.9999999930        0.0000000000        1.4395907441    0   0   1
Al               0.9999999930        0.9999999930        1.4395849470    0   0   1
Al               0.9999999930        1.9999999862        1.4395849470    0   0   1
Al               1.9999999862        0.0000000000        1.4395907441    0   0   1
Al               1.9999999862        0.9999999930        1.4395849470    0   0   1
Al               1.9999999862        1.9999999862        1.4395849470    0   0   1
Al               0.4999999965        0.4999999965        2.1672697996    0   0   1
Al               0.4999999965        1.4999999897        2.1672743514    0   0   1
Al               0.4999999965        2.4999999827        2.1672697996    0   0   1
Al               1.4999999897        0.4999999965        2.1672743514    0   0   1
Al               1.4999999897        1.4999999897        2.1672602758    0   0   1
Al               1.4999999897        2.4999999827        2.1672743514    0   0   1
Al               2.4999999827        0.4999999965        2.1672697996    0   0   1
Al               2.4999999827        1.4999999897        2.1672743514    0   0   1
Al               2.4999999827        2.4999999827        2.1672697996    0   0   1
End final coordinates



     Writing all to output data dir ./tmp/Al.save/ :
     XML data file, charge density, pseudopotentials, collected wavefunctions

     init_run     :      4.59s CPU      5.18s WALL (       1 calls)
     electrons    :    812.67s CPU    868.19s WALL (       9 calls)
     update_pot   :      8.63s CPU      9.13s WALL (       8 calls)
     forces       :     31.21s CPU     34.38s WALL (       9 calls)

     Called by init_run:
     wfcinit      :      2.46s CPU      2.69s WALL (       1 calls)
     potinit      :      0.95s CPU      1.07s WALL (       1 calls)
     hinit0       :      0.20s CPU      0.27s WALL (       1 calls)

     Called by electrons:
     c_bands      :    406.86s CPU    418.09s WALL (     113 calls)
     sum_band     :    144.57s CPU    162.53s WALL (     113 calls)
     v_of_rho     :     55.24s CPU     60.12s WALL (     114 calls)
     newd         :     55.15s CPU     71.01s WALL (     114 calls)
     PAW_pot      :     51.80s CPU     51.82s WALL (     122 calls)
     mix_rho      :    107.11s CPU    112.73s WALL (     113 calls)

     Called by c_bands:
     init_us_2    :     20.68s CPU     21.03s WALL (     235 calls)
     cegterg      :    359.22s CPU    370.14s WALL (     113 calls)

     Called by *egterg:
     cdiaghg      :      2.34s CPU      2.36s WALL (     533 calls)
     h_psi        :    271.03s CPU    280.43s WALL (     550 calls)
     s_psi        :     46.05s CPU     46.13s WALL (     550 calls)
     g_psi        :      0.75s CPU      0.75s WALL (     436 calls)

     Called by h_psi:
     h_psi:calbec :     43.29s CPU     43.80s WALL (     550 calls)
     vloc_psi     :    180.55s CPU    188.81s WALL (     550 calls)
     add_vuspsi   :     45.88s CPU     45.94s WALL (     550 calls)

     General routines
     calbec       :     62.39s CPU     63.03s WALL (     707 calls)
     fft          :     38.74s CPU     43.58s WALL (    1579 calls)
     ffts         :     47.61s CPU     52.07s WALL (   11597 calls)
     fftw         :    146.28s CPU    152.42s WALL (   47467 calls)
     interpolate  :      4.67s CPU      5.05s WALL (     114 calls)

     Parallel routines

     PWSCF        :  14m27.12s CPU  15m28.72s WALL


   This run was terminated on:  18:37:55  19May2025            

=------------------------------------------------------------------------------=
   JOB DONE.
=------------------------------------------------------------------------------=
