
     Program PWSCF v.6.7MaX starts on 14May2025 at 15:10: 6 

     This program is part of the open-source Quantum ESPRESSO suite
     for quantum simulation of materials; please cite
         "P. Giannozzi et al., J. Phys.:Condens. Matter 21 395502 (2009);
         "P. Giannozzi et al., J. Phys.:Condens. Matter 29 465901 (2017);
          URL http://www.quantum-espresso.org", 
     in publications or presentations arising from this work. More details at
     http://www.quantum-espresso.org/quote

     Parallel version (MPI & OpenMP), running on       4 processor cores
     Number of MPI processes:                 4
     Threads/MPI process:                     1

     MPI processes distributed on     1 nodes
     R & G space division:  proc/nbgrp/npool/nimage =       4
     Waiting for input...
     Reading input from standard input

     Current dimensions of program PWSCF are:
     Max number of different atomic species (ntypx) = 10
     Max number of k-points (npk) =  40000
     Max angular momentum in pseudopotentials (lmaxx) =  3
     file Al.pbe-n-kjpaw_psl.1.0.0.UPF: wavefunction(s)  3S 3P renormalized

     Subspace diagonalization in iterative solution of the eigenvalue problem:
     a serial algorithm will be used

     Found symmetry operation: I + (  0.0000  0.3333  0.0000)
     This is a supercell, fractional translations are disabled
     Message from routine setup:
     using ibrav=0 with symmetry is DISCOURAGED, use correct ibrav instead

     Parallelization info
     --------------------
     sticks:   dense  smooth     PW     G-vecs:    dense   smooth      PW
     Min        1047     416    116               135019    34125    4950
     Max        1048     418    117               135026    34130    4955
     Sum        4189    1669    465               540087   136511   19809



     bravais-lattice index     =            0
     lattice parameter (alat)  =       5.3944  a.u.
     unit-cell volume          =   11302.2493 (a.u.)^3
     number of atoms/cell      =           36
     number of atomic types    =            1
     number of electrons       =       108.00
     number of Kohn-Sham states=           65
     kinetic-energy cutoff     =      20.0000  Ry
     charge density cutoff     =     200.0000  Ry
     scf convergence threshold =      1.0E-07
     mixing beta               =       0.5000
     number of iterations used =            8  local-TF  mixing
     energy convergence thresh.=      1.0E-04
     force convergence thresh. =      1.0E-03
     Exchange-correlation= SLA  PW   PBX  PBC
                           (   1   4   3   4   0   0   0)
     nstep                     =           50


     celldm(1)=   5.394412  celldm(2)=   0.000000  celldm(3)=   0.000000
     celldm(4)=   0.000000  celldm(5)=   0.000000  celldm(6)=   0.000000

     crystal axes: (cart. coord. in units of alat)
               a(1) = (   3.000000   0.000000   0.000000 )  
               a(2) = (   0.000000   3.000000   0.000000 )  
               a(3) = (   0.000000   0.000000   8.000000 )  

     reciprocal axes: (cart. coord. in units 2 pi/alat)
               b(1) = (  0.333333  0.000000  0.000000 )  
               b(2) = (  0.000000  0.333333  0.000000 )  
               b(3) = (  0.000000  0.000000  0.125000 )  


     PseudoPot. # 1 for Al read from file:
     ../../Pseudo/Al.pbe-n-kjpaw_psl.1.0.0.UPF
     MD5 check sum: dd5adf945272da8132fc805c9e56c2d6
     Pseudo is Projector augmented-wave + core cor, Zval =  3.0
     Generated using "atomic" code by A. Dal Corso  v.5.1
     Shape of augmentation charge: PSQ
     Using radial grid of 1135 points,  6 beta functions with: 
                l(1) =   0
                l(2) =   0
                l(3) =   1
                l(4) =   1
                l(5) =   2
                l(6) =   2
     Q(r) pseudized with 0 coefficients 


     atomic species   valence    mass     pseudopotential
        Al             3.00     1.00000     Al( 1.00)

      8 Sym. Ops. (no inversion) found



   Cartesian axes

     site n.     atom                  positions (alat units)
         1           Al  tau(   1) = (   0.0000000   0.0000000   0.0000000  )
         2           Al  tau(   2) = (   0.0000000   1.0000000   0.0000000  )
         3           Al  tau(   3) = (   0.0000000   2.0000000   0.0000000  )
         4           Al  tau(   4) = (   1.0000000   0.0000000   0.0000000  )
         5           Al  tau(   5) = (   1.0000000   1.0000000   0.0000000  )
         6           Al  tau(   6) = (   1.0000000   2.0000000   0.0000000  )
         7           Al  tau(   7) = (   2.0000000   0.0000000   0.0000000  )
         8           Al  tau(   8) = (   2.0000000   1.0000000   0.0000000  )
         9           Al  tau(   9) = (   2.0000000   2.0000000   0.0000000  )
        10           Al  tau(  10) = (   0.5000000   0.5000000   0.7071068  )
        11           Al  tau(  11) = (   0.5000000   1.5000000   0.7071068  )
        12           Al  tau(  12) = (   0.5000000   2.5000000   0.7071068  )
        13           Al  tau(  13) = (   1.5000000   0.5000000   0.7071068  )
        14           Al  tau(  14) = (   1.5000000   1.5000000   0.7071068  )
        15           Al  tau(  15) = (   1.5000000   2.5000000   0.7071068  )
        16           Al  tau(  16) = (   2.5000000   0.5000000   0.7071068  )
        17           Al  tau(  17) = (   2.5000000   1.5000000   0.7071068  )
        18           Al  tau(  18) = (   2.5000000   2.5000000   0.7071068  )
        19           Al  tau(  19) = (   0.0000000   0.0000000   1.4307627  )
        20           Al  tau(  20) = (   0.0000000   1.0000000   1.4307591  )
        21           Al  tau(  21) = (   0.0000000   2.0000000   1.4307591  )
        22           Al  tau(  22) = (   1.0000000   0.0000000   1.4307591  )
        23           Al  tau(  23) = (   1.0000000   1.0000000   1.4307582  )
        24           Al  tau(  24) = (   1.0000000   2.0000000   1.4307582  )
        25           Al  tau(  25) = (   2.0000000   0.0000000   1.4307591  )
        26           Al  tau(  26) = (   2.0000000   1.0000000   1.4307582  )
        27           Al  tau(  27) = (   2.0000000   2.0000000   1.4307582  )
        28           Al  tau(  28) = (   0.5000000   0.5000000   2.1566262  )
        29           Al  tau(  29) = (   0.5000000   1.5000000   2.1566250  )
        30           Al  tau(  30) = (   0.5000000   2.5000000   2.1566262  )
        31           Al  tau(  31) = (   1.5000000   0.5000000   2.1566250  )
        32           Al  tau(  32) = (   1.5000000   1.5000000   2.1566273  )
        33           Al  tau(  33) = (   1.5000000   2.5000000   2.1566250  )
        34           Al  tau(  34) = (   2.5000000   0.5000000   2.1566262  )
        35           Al  tau(  35) = (   2.5000000   1.5000000   2.1566250  )
        36           Al  tau(  36) = (   2.5000000   2.5000000   2.1566262  )

     number of k points=     6  Marzari-Vanderbilt smearing, width (Ry)=  0.0500
                       cart. coord. in units 2pi/alat
        k(    1) = (   0.0277778   0.0277778   0.0000000), wk =   0.2222222
        k(    2) = (   0.0277778   0.0833333   0.0000000), wk =   0.4444444
        k(    3) = (   0.0277778   0.1388889   0.0000000), wk =   0.4444444
        k(    4) = (   0.0833333   0.0833333   0.0000000), wk =   0.2222222
        k(    5) = (   0.0833333   0.1388889   0.0000000), wk =   0.4444444
        k(    6) = (   0.1388889   0.1388889   0.0000000), wk =   0.2222222

     Dense  grid:   540087 G-vectors     FFT dimensions: (  75,  75, 200)

     Smooth grid:   136511 G-vectors     FFT dimensions: (  48,  48, 125)

     Estimated max dynamical RAM per process >     750.43 MB

     Estimated total dynamical RAM >       2.93 GB

     Initial potential from superposition of free atoms

     starting charge  107.91755, renormalised to  108.00000

     negative rho (up, down):  2.512E-04 0.000E+00
     Starting wfcs are  144 randomized atomic wfcs
     Checking if some PAW data can be deallocated... 

     total cpu time spent up to now is        4.5 secs

     Self-consistent Calculation

     iteration #  1     ecut=    20.00 Ry     beta= 0.50
     Davidson diagonalization with overlap
     ethr =  1.00E-02,  avg # of iterations =  4.0

     total cpu time spent up to now is       13.2 secs

     total energy              =   -1421.45385881 Ry
     estimated scf accuracy    <       1.84464199 Ry

     iteration #  2     ecut=    20.00 Ry     beta= 0.50
     Davidson diagonalization with overlap
     ethr =  1.71E-03,  avg # of iterations =  3.7

     total cpu time spent up to now is       19.7 secs

     total energy              =   -1421.21177449 Ry
     estimated scf accuracy    <       1.23647250 Ry

     iteration #  3     ecut=    20.00 Ry     beta= 0.50
     Davidson diagonalization with overlap
     ethr =  1.14E-03,  avg # of iterations =  2.5

     total cpu time spent up to now is       27.6 secs

     total energy              =   -1421.41231860 Ry
     estimated scf accuracy    <       0.27423427 Ry

     iteration #  4     ecut=    20.00 Ry     beta= 0.50
     Davidson diagonalization with overlap
     ethr =  2.54E-04,  avg # of iterations =  2.5

     total cpu time spent up to now is       34.6 secs

     total energy              =   -1421.46365724 Ry
     estimated scf accuracy    <       0.06213896 Ry

     iteration #  5     ecut=    20.00 Ry     beta= 0.50
     Davidson diagonalization with overlap
     ethr =  5.75E-05,  avg # of iterations =  6.5

     total cpu time spent up to now is       48.7 secs

     total energy              =   -1421.44766889 Ry
     estimated scf accuracy    <       0.11466626 Ry

     iteration #  6     ecut=    20.00 Ry     beta= 0.50
     Davidson diagonalization with overlap
     ethr =  5.75E-05,  avg # of iterations =  2.0

     total cpu time spent up to now is       56.4 secs

     total energy              =   -1421.45221124 Ry
     estimated scf accuracy    <       0.05556195 Ry

     iteration #  7     ecut=    20.00 Ry     beta= 0.50
     Davidson diagonalization with overlap
     ethr =  5.14E-05,  avg # of iterations =  1.0

     negative rho (up, down):  2.456E-02 0.000E+00

     total cpu time spent up to now is       63.2 secs

     total energy              =   -1421.44370573 Ry
     estimated scf accuracy    <       0.05752419 Ry

     iteration #  8     ecut=    20.00 Ry     beta= 0.50
     Davidson diagonalization with overlap
     ethr =  5.14E-05,  avg # of iterations =  2.0

     negative rho (up, down):  4.279E-02 0.000E+00

     total cpu time spent up to now is       70.8 secs

     total energy              =   -1421.44568606 Ry
     estimated scf accuracy    <       0.00869927 Ry

     iteration #  9     ecut=    20.00 Ry     beta= 0.50
     Davidson diagonalization with overlap
     c_bands:  1 eigenvalues not converged
     ethr =  8.05E-06,  avg # of iterations =  7.3

     negative rho (up, down):  1.237E-02 0.000E+00

     total cpu time spent up to now is       84.0 secs

     total energy              =   -1421.44969793 Ry
     estimated scf accuracy    <       0.01251236 Ry

     iteration # 10     ecut=    20.00 Ry     beta= 0.50
     Davidson diagonalization with overlap
     ethr =  8.05E-06,  avg # of iterations =  2.3

     negative rho (up, down):  6.320E-03 0.000E+00

     total cpu time spent up to now is       95.2 secs

     total energy              =   -1421.44812962 Ry
     estimated scf accuracy    <       0.02906318 Ry

     iteration # 11     ecut=    20.00 Ry     beta= 0.50
     Davidson diagonalization with overlap
     ethr =  8.05E-06,  avg # of iterations =  2.0

     negative rho (up, down):  7.701E-04 0.000E+00

     total cpu time spent up to now is      104.0 secs

     total energy              =   -1421.44620486 Ry
     estimated scf accuracy    <       0.01153772 Ry

     iteration # 12     ecut=    20.00 Ry     beta= 0.50
     Davidson diagonalization with overlap
     ethr =  8.05E-06,  avg # of iterations =  2.0

     negative rho (up, down):  3.148E-04 0.000E+00

     total cpu time spent up to now is      111.6 secs

     total energy              =   -1421.44725892 Ry
     estimated scf accuracy    <       0.00044141 Ry

     iteration # 13     ecut=    20.00 Ry     beta= 0.50
     Davidson diagonalization with overlap
     c_bands:  2 eigenvalues not converged
     ethr =  4.09E-07,  avg # of iterations =  8.8

     negative rho (up, down):  3.577E-04 0.000E+00

     total cpu time spent up to now is      124.7 secs

     total energy              =   -1421.44771004 Ry
     estimated scf accuracy    <       0.00109720 Ry

     iteration # 14     ecut=    20.00 Ry     beta= 0.50
     Davidson diagonalization with overlap
     ethr =  4.09E-07,  avg # of iterations =  3.7

     negative rho (up, down):  3.476E-04 0.000E+00

     total cpu time spent up to now is      133.0 secs

     total energy              =   -1421.44755729 Ry
     estimated scf accuracy    <       0.00106753 Ry

     iteration # 15     ecut=    20.00 Ry     beta= 0.50
     Davidson diagonalization with overlap
     ethr =  4.09E-07,  avg # of iterations =  2.0

     negative rho (up, down):  1.644E-04 0.000E+00

     total cpu time spent up to now is      140.8 secs

     total energy              =   -1421.44759430 Ry
     estimated scf accuracy    <       0.00010200 Ry

     iteration # 16     ecut=    20.00 Ry     beta= 0.50
     Davidson diagonalization with overlap
     ethr =  9.44E-08,  avg # of iterations =  4.2

     negative rho (up, down):  4.800E-05 0.000E+00

     total cpu time spent up to now is      148.8 secs

     total energy              =   -1421.44760426 Ry
     estimated scf accuracy    <       0.00000873 Ry

     iteration # 17     ecut=    20.00 Ry     beta= 0.50
     Davidson diagonalization with overlap
     ethr =  8.08E-09,  avg # of iterations =  6.2

     negative rho (up, down):  9.366E-05 0.000E+00

     total cpu time spent up to now is      159.9 secs

     total energy              =   -1421.44760868 Ry
     estimated scf accuracy    <       0.00000499 Ry

     iteration # 18     ecut=    20.00 Ry     beta= 0.50
     Davidson diagonalization with overlap
     ethr =  4.62E-09,  avg # of iterations =  2.0

     negative rho (up, down):  1.036E-04 0.000E+00

     total cpu time spent up to now is      166.8 secs

     End of self-consistent calculation

          k = 0.0278 0.0278 0.0000 ( 17097 PWs)   bands (ev):

   -10.4568  -9.1331  -8.7884  -8.7884  -8.1265  -8.1265  -7.4777  -7.4777
    -7.1404  -7.0099  -6.8211  -6.8211  -6.4874  -6.4874  -5.8422  -5.8387
    -5.3722  -5.3722  -5.1945  -5.1945  -4.7231  -4.7231  -4.5515  -4.2372
    -3.7544  -3.2579  -3.2579  -3.1144  -3.1144  -2.6204  -2.6204  -2.4793
    -1.9943  -1.9943  -1.9827  -1.9827  -1.9779  -1.9779  -1.9171  -1.8205
    -1.8205  -1.6473  -1.0296  -1.0285  -0.7668  -0.7668  -0.5809  -0.5809
    -0.4290  -0.4078  -0.4078  -0.3176  -0.3176  -0.2702   0.0906   0.0906
     0.1888   0.2485   0.2485   0.2675   0.4270   0.5858   0.5858   1.0531
     1.1239

          k = 0.0278 0.0833 0.0000 ( 17101 PWs)   bands (ev):

   -10.3450  -9.3424  -9.0222  -8.6779  -8.0274  -8.0166  -7.6874  -7.3680
    -7.3583  -7.0311  -6.9000  -6.7119  -6.3848  -6.0596  -5.9158  -5.7339
    -5.7305  -5.2636  -5.0881  -4.6150  -4.4449  -4.4294  -4.2910  -4.1280
    -3.9707  -3.8085  -3.6476  -3.1542  -3.1527  -3.1524  -2.8835  -2.5131
    -2.3738  -2.3411  -2.2526  -1.8907  -1.8820  -1.8715  -1.8130  -1.7462
    -1.6264  -1.5546  -1.3886  -1.0996  -1.0827  -0.9991  -0.9196  -0.9114
    -0.8861  -0.6665  -0.6316  -0.2152   0.0173   0.1348   0.1794   0.1911
     0.3522   0.5637   0.6354   0.6786   0.8008   0.8369   1.0535   1.0810
     1.2160

          k = 0.0278 0.1389 0.0000 ( 17064 PWs)   bands (ev):

   -10.1216  -9.7872  -8.8005  -8.4686  -8.4571  -8.1267  -7.7969  -7.4681
    -7.1489  -6.8208  -6.6807  -6.4938  -6.4857  -6.3524  -6.1676  -5.5186
    -5.1802  -5.0468  -4.8736  -4.7223  -4.3992  -4.2416  -4.2211  -4.0764
    -3.9303  -3.9101  -3.5844  -3.5812  -3.3183  -3.1162  -2.9583  -2.9482
    -2.6471  -2.6439  -2.2991  -2.1723  -2.0469  -1.9790  -1.6857  -1.6844
    -1.6588  -1.6051  -1.5372  -1.4018  -1.3842  -1.3405  -1.2946  -0.9214
    -0.6173  -0.4691  -0.3520  -0.1861  -0.0263  -0.0118   0.2895   0.3905
     0.5115   0.5592   0.6829   0.7619   0.7917   0.8682   1.1688   1.5987
     1.6423

          k = 0.0833 0.0833 0.0000 ( 17060 PWs)   bands (ev):

   -10.2332  -9.2314  -9.2314  -8.9112  -8.2367  -7.9172  -7.9172  -7.2490
    -7.2490  -6.9300  -6.7903  -6.2700  -6.2700  -5.9511  -5.9511  -5.8068
    -5.8068  -4.9798  -4.9798  -4.8301  -4.3480  -4.3234  -4.3234  -4.0189
    -3.8631  -3.8631  -3.3842  -3.3842  -3.0765  -3.0478  -3.0478  -3.0444
    -3.0444  -2.9020  -2.9020  -2.1190  -2.1190  -2.0791  -2.0587  -1.7089
    -1.2821  -1.2821  -1.0261  -0.8404  -0.8086  -0.8086  -0.7818  -0.7818
    -0.6726  -0.5386  -0.5386  -0.3332  -0.3332  -0.2050   0.0954   0.0954
     0.1500   0.6282   0.7257   0.7257   0.9407   0.9407   1.0133   1.1527
     1.2510

          k = 0.0833 0.1389 0.0000 ( 17045 PWs)   bands (ev):

   -10.0100  -9.6758  -9.0097  -8.6897  -8.6779  -8.3582  -7.6972  -7.3679
    -7.0306  -6.7040  -6.5711  -6.3771  -6.2430  -5.7344  -5.5891  -5.4113
    -5.4102  -5.4069  -5.2632  -5.0723  -4.4536  -4.1143  -4.1122  -4.1089
    -3.8012  -3.7977  -3.6485  -3.5227  -3.4757  -3.3276  -3.1639  -3.0097
    -2.8387  -2.8286  -2.6613  -2.5275  -2.5063  -2.2565  -2.0668  -2.0588
    -1.5010  -1.4134  -1.1903  -1.1275  -1.0696  -0.7524  -0.6040  -0.5735
    -0.3628  -0.3005  -0.2962  -0.2619  -0.2476  -0.2266  -0.1525   0.5267
     0.5963   0.6148   0.6774   0.8691   0.8946   1.0460   1.0891   1.1483
     1.5300

          k = 0.1389 0.1389 0.0000 ( 17066 PWs)   bands (ev):

    -9.7870  -9.4534  -9.4534  -9.1205  -8.4686  -8.1375  -8.1375  -7.8071
    -6.3523  -6.1606  -6.1606  -6.0246  -6.0246  -5.8367  -5.8367  -5.6978
    -5.1972  -5.1972  -4.8773  -4.8773  -4.8570  -4.8570  -4.5352  -4.5352
    -3.9014  -3.9014  -3.5839  -3.5837  -3.5837  -3.2591  -3.2591  -2.9354
    -2.7973  -2.7973  -2.7622  -2.4797  -2.4797  -2.2644  -1.8564  -1.8564
    -1.5425  -1.5425  -1.5261  -1.2930  -1.0461  -0.9823  -0.9823  -0.8935
    -0.6715  -0.4265  -0.0396  -0.0396   0.2700   0.2700   0.4374   0.5253
     0.8205   0.8205   0.8283   0.9115   0.9474   0.9808   0.9808   1.1269
     1.1269

     the Fermi energy is     0.0743 ev

!    total energy              =   -1421.44760928 Ry

     total all-electron energy =    -17482.587746 Ry
     estimated scf accuracy    <       0.00000002 Ry
     smearing contrib. (-TS)   =       0.00255007 Ry
     internal energy E=F+TS    =   -1421.45015935 Ry

     The total energy is F=E-TS. E is the sum of the following terms:
     one-electron contribution =   -1539.70936298 Ry
     hartree contribution      =     796.04558513 Ry
     xc contribution           =     -91.10134011 Ry
     ewald contribution        =     661.72892460 Ry
     one-center paw contrib.   =   -1248.41396599 Ry

     convergence has been achieved in  18 iterations

     negative rho (up, down):  1.036E-04 0.000E+00

     Forces acting on atoms (cartesian axes, Ry/au):

     atom    1 type  1   force =     0.00000000    0.00000000   -0.00465006
     atom    2 type  1   force =     0.00000000    0.00000000   -0.00464995
     atom    3 type  1   force =     0.00000000   -0.00000000   -0.00464995
     atom    4 type  1   force =     0.00000000    0.00000000   -0.00464995
     atom    5 type  1   force =     0.00000003    0.00000003   -0.00464968
     atom    6 type  1   force =     0.00000003   -0.00000003   -0.00464968
     atom    7 type  1   force =    -0.00000000    0.00000000   -0.00464995
     atom    8 type  1   force =    -0.00000003    0.00000003   -0.00464968
     atom    9 type  1   force =    -0.00000003   -0.00000003   -0.00464968
     atom   10 type  1   force =    -0.00000043   -0.00000043    0.00502178
     atom   11 type  1   force =     0.00000042    0.00000000    0.00502149
     atom   12 type  1   force =    -0.00000043    0.00000043    0.00502178
     atom   13 type  1   force =     0.00000000    0.00000042    0.00502149
     atom   14 type  1   force =     0.00000000    0.00000000    0.00502216
     atom   15 type  1   force =     0.00000000   -0.00000042    0.00502149
     atom   16 type  1   force =     0.00000043   -0.00000043    0.00502178
     atom   17 type  1   force =    -0.00000042    0.00000000    0.00502149
     atom   18 type  1   force =     0.00000043    0.00000043    0.00502178
     atom   19 type  1   force =     0.00000000    0.00000000    0.00013539
     atom   20 type  1   force =     0.00000000    0.00000013    0.00013748
     atom   21 type  1   force =     0.00000000   -0.00000013    0.00013748
     atom   22 type  1   force =     0.00000013    0.00000000    0.00013748
     atom   23 type  1   force =     0.00000034    0.00000034    0.00013725
     atom   24 type  1   force =     0.00000034   -0.00000034    0.00013725
     atom   25 type  1   force =    -0.00000013    0.00000000    0.00013748
     atom   26 type  1   force =    -0.00000034    0.00000034    0.00013725
     atom   27 type  1   force =    -0.00000034   -0.00000034    0.00013725
     atom   28 type  1   force =     0.00000005    0.00000005   -0.00050903
     atom   29 type  1   force =     0.00000035    0.00000000   -0.00050881
     atom   30 type  1   force =     0.00000005   -0.00000005   -0.00050903
     atom   31 type  1   force =     0.00000000    0.00000035   -0.00050881
     atom   32 type  1   force =     0.00000000    0.00000000   -0.00050956
     atom   33 type  1   force =     0.00000000   -0.00000035   -0.00050881
     atom   34 type  1   force =    -0.00000005    0.00000005   -0.00050903
     atom   35 type  1   force =    -0.00000035    0.00000000   -0.00050881
     atom   36 type  1   force =    -0.00000005   -0.00000005   -0.00050903

     Total force =     0.001581     Total SCF correction =     0.000104

     BFGS Geometry Optimization
     Energy error            =      0.0E+00
     Gradient error          =      5.1E-04

     bfgs converged in   1 scf cycles and   0 bfgs steps
     (criteria: energy <  1.0E-04 Ry, force <  1.0E-03 Ry/Bohr)

     End of BFGS Geometry Optimization

     Final energy   =   -1421.4476092828 Ry
Begin final coordinates

ATOMIC_POSITIONS (alat)
Al            0.0000000000        0.0000000000        0.0000000000    0   0   0
Al            0.0000000000        0.9999999976        0.0000000000    0   0   0
Al            0.0000000000        1.9999999953        0.0000000000    0   0   0
Al            0.9999999976        0.0000000000        0.0000000000    0   0   0
Al            0.9999999976        0.9999999976        0.0000000000    0   0   0
Al            0.9999999976        1.9999999953        0.0000000000    0   0   0
Al            1.9999999953        0.0000000000        0.0000000000    0   0   0
Al            1.9999999953        0.9999999976        0.0000000000    0   0   0
Al            1.9999999953        1.9999999953        0.0000000000    0   0   0
Al            0.4999999988        0.4999999988        0.7071067673    0   0   0
Al            0.4999999988        1.4999999965        0.7071067673    0   0   0
Al            0.4999999988        2.4999999941        0.7071067673    0   0   0
Al            1.4999999965        0.4999999988        0.7071067673    0   0   0
Al            1.4999999965        1.4999999965        0.7071067673    0   0   0
Al            1.4999999965        2.4999999941        0.7071067673    0   0   0
Al            2.4999999941        0.4999999988        0.7071067673    0   0   0
Al            2.4999999941        1.4999999965        0.7071067673    0   0   0
Al            2.4999999941        2.4999999941        0.7071067673    0   0   0
Al            0.0000000000        0.0000000000        1.4307627046    0   0   1
Al            0.0000000000        0.9999999976        1.4307591089    0   0   1
Al            0.0000000000        1.9999999953        1.4307591089    0   0   1
Al            0.9999999976        0.0000000000        1.4307591089    0   0   1
Al            0.9999999976        0.9999999976        1.4307581502    0   0   1
Al            0.9999999976        1.9999999953        1.4307581502    0   0   1
Al            1.9999999953        0.0000000000        1.4307591089    0   0   1
Al            1.9999999953        0.9999999976        1.4307581502    0   0   1
Al            1.9999999953        1.9999999953        1.4307581502    0   0   1
Al            0.4999999988        0.4999999988        2.1566262357    0   0   1
Al            0.4999999988        1.4999999965        2.1566250477    0   0   1
Al            0.4999999988        2.4999999941        2.1566262357    0   0   1
Al            1.4999999965        0.4999999988        2.1566250477    0   0   1
Al            1.4999999965        1.4999999965        2.1566273052    0   0   1
Al            1.4999999965        2.4999999941        2.1566250477    0   0   1
Al            2.4999999941        0.4999999988        2.1566262357    0   0   1
Al            2.4999999941        1.4999999965        2.1566250477    0   0   1
Al            2.4999999941        2.4999999941        2.1566262357    0   0   1
End final coordinates



     Writing output data file ./tmp/Al.save/

     init_run     :      3.86s CPU      4.39s WALL (       1 calls)
     electrons    :    138.63s CPU    162.33s WALL (       1 calls)
     forces       :      2.43s CPU      3.06s WALL (       1 calls)

     Called by init_run:
     wfcinit      :      2.82s CPU      2.92s WALL (       1 calls)
     potinit      :      0.61s CPU      0.64s WALL (       1 calls)
     hinit0       :      0.13s CPU      0.14s WALL (       1 calls)

     Called by electrons:
     c_bands      :     95.14s CPU    105.56s WALL (      18 calls)
     sum_band     :     19.90s CPU     29.46s WALL (      18 calls)
     v_of_rho     :      1.74s CPU      1.97s WALL (      19 calls)
     newd         :      4.82s CPU      7.97s WALL (      19 calls)
     PAW_pot      :     10.54s CPU     10.86s WALL (      19 calls)
     mix_rho      :      7.05s CPU      7.43s WALL (      18 calls)

     Called by c_bands:
     init_us_2    :      1.75s CPU      1.90s WALL (     228 calls)
     cegterg      :     89.35s CPU     99.44s WALL (     108 calls)

     Called by *egterg:
     cdiaghg      :      1.89s CPU      2.03s WALL (     496 calls)
     h_psi        :     54.79s CPU     60.35s WALL (     502 calls)
     s_psi        :     10.20s CPU     12.00s WALL (     502 calls)
     g_psi        :      0.10s CPU      0.11s WALL (     388 calls)

     Called by h_psi:
     h_psi:calbec :     12.94s CPU     14.79s WALL (     502 calls)
     vloc_psi     :     30.51s CPU     32.22s WALL (     502 calls)
     add_vuspsi   :     11.24s CPU     13.17s WALL (     502 calls)

     General routines
     calbec       :     18.33s CPU     21.01s WALL (     634 calls)
     fft          :      1.43s CPU      1.53s WALL (     256 calls)
     ffts         :      4.20s CPU      4.40s WALL (    3548 calls)
     fftw         :     37.68s CPU     40.87s WALL (   44806 calls)
     interpolate  :      0.13s CPU      0.15s WALL (      19 calls)

     Parallel routines
     fft_scatt_xy :      3.03s CPU      3.22s WALL (   48610 calls)
     fft_scatt_yz :     14.14s CPU     16.05s WALL (   48610 calls)

     PWSCF        :   2m25.02s CPU   2m49.98s WALL


   This run was terminated on:  15:12:56  14May2025            

=------------------------------------------------------------------------------=
   JOB DONE.
=------------------------------------------------------------------------------=
Note: The following floating-point exceptions are signalling: IEEE_INVALID_FLAG IEEE_DIVIDE_BY_ZERO IEEE_UNDERFLOW_FLAG
