No protocol specified

     Program PWSCF v.7.3.1 starts on 19May2025 at 17:27:52 

     This program is part of the open-source Quantum ESPRESSO suite
     for quantum simulation of materials; please cite
         "P. Giannozzi et al., J. Phys.:Condens. Matter 21 395502 (2009);
         "P. Giannozzi et al., J. Phys.:Condens. Matter 29 465901 (2017);
         "P. Giannozzi et al., J. Chem. Phys. 152 154105 (2020);
          URL http://www.quantum-espresso.org", 
     in publications or presentations arising from this work. More details at
     http://www.quantum-espresso.org/quote

     Parallel version (MPI), running on    14 processors

     MPI processes distributed on     1 nodes
     23162 MiB available memory on the printing compute node when the environment starts

     Waiting for input...
     Reading input from standard input

     Current dimensions of program PWSCF are:
     Max number of different atomic species (ntypx) = 10
     Max number of k-points (npk) =  40000
     Max angular momentum in pseudopotentials (lmaxx) =  4
     file Al.pbe-n-kjpaw_psl.1.0.0.UPF: wavefunction(s)  3S 3P renormalized
     Found identity + (  0.0000  0.3333  0.0000) symmetry
     This is a supercell, fractional translations are disabled
     Message from routine setup:
     using ibrav=0 with symmetry is DISCOURAGED, use correct ibrav instead

     K-points division:     npool     =       7
     R & G space division:  proc/nbgrp/npool/nimage =       2
     Subspace diagonalization in iterative solution of the eigenvalue problem:
     a serial algorithm will be used


     Parallelization info
     --------------------
     sticks:   dense  smooth     PW     G-vecs:    dense   smooth      PW
     Min        3332    1670    442               546072   193176   27050
     Max        3333    1671    443               546077   193177   27061
     Sum        6665    3341    885              1092149   386353   54111

     Using Slab Decomposition



     bravais-lattice index     =            0
     lattice parameter (alat)  =       5.3944  a.u.
     unit-cell volume          =   11302.2493 (a.u.)^3
     number of atoms/cell      =           36
     number of atomic types    =            1
     number of electrons       =       108.00
     number of Kohn-Sham states=           65
     kinetic-energy cutoff     =      40.0000  Ry
     charge density cutoff     =     320.0000  Ry
     scf convergence threshold =      1.0E-07
     mixing beta               =       0.5000
     number of iterations used =            8  local-TF  mixing
     energy convergence thresh.=      1.0E-04
     force convergence thresh. =      1.0E-03
     Exchange-correlation= SLA  PW   PBX  PBC
                           (   1   4   3   4   0   0   0)
     nstep                     =           50


     celldm(1)=   5.394412  celldm(2)=   0.000000  celldm(3)=   0.000000
     celldm(4)=   0.000000  celldm(5)=   0.000000  celldm(6)=   0.000000

     crystal axes: (cart. coord. in units of alat)
               a(1) = (   3.000000   0.000000   0.000000 )  
               a(2) = (   0.000000   3.000000   0.000000 )  
               a(3) = (   0.000000   0.000000   8.000000 )  

     reciprocal axes: (cart. coord. in units 2 pi/alat)
               b(1) = (  0.333333  0.000000  0.000000 )  
               b(2) = (  0.000000  0.333333  0.000000 )  
               b(3) = (  0.000000  0.000000  0.125000 )  


     PseudoPot. # 1 for Al read from file:
     ../../Pseudo/Al.pbe-n-kjpaw_psl.1.0.0.UPF
     MD5 check sum: dd5adf945272da8132fc805c9e56c2d6
     Pseudo is Projector augmented-wave + core cor, Zval =  3.0
     Generated using "atomic" code by A. Dal Corso  v.5.1
     Shape of augmentation charge: PSQ
     Using radial grid of 1135 points,  6 beta functions with: 
                l(1) =   0
                l(2) =   0
                l(3) =   1
                l(4) =   1
                l(5) =   2
                l(6) =   2
     Q(r) pseudized with 0 coefficients 


     atomic species   valence    mass     pseudopotential
     Al                3.00     1.00000     Al( 1.00)

      8 Sym. Ops. (no inversion) found



   Cartesian axes

     site n.     atom                  positions (alat units)
         1        Al     tau(   1) = (   0.0000000   0.0000000   0.0000000  )
         2        Al     tau(   2) = (   0.0000000   1.0000000   0.0000000  )
         3        Al     tau(   3) = (   0.0000000   2.0000000   0.0000000  )
         4        Al     tau(   4) = (   1.0000000   0.0000000   0.0000000  )
         5        Al     tau(   5) = (   1.0000000   1.0000000   0.0000000  )
         6        Al     tau(   6) = (   1.0000000   2.0000000   0.0000000  )
         7        Al     tau(   7) = (   2.0000000   0.0000000   0.0000000  )
         8        Al     tau(   8) = (   2.0000000   1.0000000   0.0000000  )
         9        Al     tau(   9) = (   2.0000000   2.0000000   0.0000000  )
        10        Al     tau(  10) = (   0.5000000   0.5000000   0.7071068  )
        11        Al     tau(  11) = (   0.5000000   1.5000000   0.7071068  )
        12        Al     tau(  12) = (   0.5000000   2.5000000   0.7071068  )
        13        Al     tau(  13) = (   1.5000000   0.5000000   0.7071068  )
        14        Al     tau(  14) = (   1.5000000   1.5000000   0.7071068  )
        15        Al     tau(  15) = (   1.5000000   2.5000000   0.7071068  )
        16        Al     tau(  16) = (   2.5000000   0.5000000   0.7071068  )
        17        Al     tau(  17) = (   2.5000000   1.5000000   0.7071068  )
        18        Al     tau(  18) = (   2.5000000   2.5000000   0.7071068  )
        19        Al     tau(  19) = (   0.0000000   0.0000000   1.4307627  )
        20        Al     tau(  20) = (   0.0000000   1.0000000   1.4307591  )
        21        Al     tau(  21) = (   0.0000000   2.0000000   1.4307591  )
        22        Al     tau(  22) = (   1.0000000   0.0000000   1.4307591  )
        23        Al     tau(  23) = (   1.0000000   1.0000000   1.4307582  )
        24        Al     tau(  24) = (   1.0000000   2.0000000   1.4307582  )
        25        Al     tau(  25) = (   2.0000000   0.0000000   1.4307591  )
        26        Al     tau(  26) = (   2.0000000   1.0000000   1.4307582  )
        27        Al     tau(  27) = (   2.0000000   2.0000000   1.4307582  )
        28        Al     tau(  28) = (   0.5000000   0.5000000   2.1566262  )
        29        Al     tau(  29) = (   0.5000000   1.5000000   2.1566250  )
        30        Al     tau(  30) = (   0.5000000   2.5000000   2.1566262  )
        31        Al     tau(  31) = (   1.5000000   0.5000000   2.1566250  )
        32        Al     tau(  32) = (   1.5000000   1.5000000   2.1566273  )
        33        Al     tau(  33) = (   1.5000000   2.5000000   2.1566250  )
        34        Al     tau(  34) = (   2.5000000   0.5000000   2.1566262  )
        35        Al     tau(  35) = (   2.5000000   1.5000000   2.1566250  )
        36        Al     tau(  36) = (   2.5000000   2.5000000   2.1566262  )

     number of k points=    21  Marzari-Vanderbilt smearing, width (Ry)=  0.0500
                       cart. coord. in units 2pi/alat
        k(    1) = (   0.0138889   0.0138889   0.0000000), wk =   0.0555556
        k(    2) = (   0.0138889   0.0416667   0.0000000), wk =   0.1111111
        k(    3) = (   0.0138889   0.0694444   0.0000000), wk =   0.1111111
        k(    4) = (   0.0138889   0.0972222   0.0000000), wk =   0.1111111
        k(    5) = (   0.0138889   0.1250000   0.0000000), wk =   0.1111111
        k(    6) = (   0.0138889   0.1527778   0.0000000), wk =   0.1111111
        k(    7) = (   0.0416667   0.0416667   0.0000000), wk =   0.0555556
        k(    8) = (   0.0416667   0.0694444   0.0000000), wk =   0.1111111
        k(    9) = (   0.0416667   0.0972222   0.0000000), wk =   0.1111111
        k(   10) = (   0.0416667   0.1250000   0.0000000), wk =   0.1111111
        k(   11) = (   0.0416667   0.1527778   0.0000000), wk =   0.1111111
        k(   12) = (   0.0694444   0.0694444   0.0000000), wk =   0.0555556
        k(   13) = (   0.0694444   0.0972222   0.0000000), wk =   0.1111111
        k(   14) = (   0.0694444   0.1250000   0.0000000), wk =   0.1111111
        k(   15) = (   0.0694444   0.1527778   0.0000000), wk =   0.1111111
        k(   16) = (   0.0972222   0.0972222   0.0000000), wk =   0.0555556
        k(   17) = (   0.0972222   0.1250000   0.0000000), wk =   0.1111111
        k(   18) = (   0.0972222   0.1527778   0.0000000), wk =   0.1111111
        k(   19) = (   0.1250000   0.1250000   0.0000000), wk =   0.0555556
        k(   20) = (   0.1250000   0.1527778   0.0000000), wk =   0.1111111
        k(   21) = (   0.1527778   0.1527778   0.0000000), wk =   0.0555556

     Dense  grid:  1092149 G-vectors     FFT dimensions: (  96,  96, 250)

     Smooth grid:   386353 G-vectors     FFT dimensions: (  72,  72, 180)

     Estimated max dynamical RAM per process >     991.28 MB

     Estimated total dynamical RAM >      11.99 GB

     Initial potential from superposition of free atoms

     starting charge     107.9176, renormalised to     108.0000

     negative rho (up, down):  9.667E-05 0.000E+00
     Starting wfcs are  144 randomized atomic wfcs
     Checking if some PAW data can be deallocated... 

     total cpu time spent up to now is       29.9 secs

     Self-consistent Calculation

     iteration #  1     ecut=    40.00 Ry     beta= 0.50
     Davidson diagonalization with overlap
     ethr =  1.00E-02,  avg # of iterations =  3.8

     total cpu time spent up to now is       79.1 secs

     total energy              =   -1421.44422573 Ry
     estimated scf accuracy    <       1.80867785 Ry

     iteration #  2     ecut=    40.00 Ry     beta= 0.50
     Davidson diagonalization with overlap
     ethr =  1.67E-03,  avg # of iterations =  3.1

     total cpu time spent up to now is      119.8 secs

     total energy              =   -1421.22257350 Ry
     estimated scf accuracy    <       1.20514499 Ry

     iteration #  3     ecut=    40.00 Ry     beta= 0.50
     Davidson diagonalization with overlap
     ethr =  1.12E-03,  avg # of iterations =  2.2

     total cpu time spent up to now is      160.7 secs

     total energy              =   -1421.42251042 Ry
     estimated scf accuracy    <       0.26691082 Ry

     iteration #  4     ecut=    40.00 Ry     beta= 0.50
     Davidson diagonalization with overlap
     ethr =  2.47E-04,  avg # of iterations =  3.9

     total cpu time spent up to now is      203.5 secs

     total energy              =   -1421.47390614 Ry
     estimated scf accuracy    <       0.06206878 Ry

     iteration #  5     ecut=    40.00 Ry     beta= 0.50
     Davidson diagonalization with overlap
     ethr =  5.75E-05,  avg # of iterations =  5.8

     total cpu time spent up to now is      251.7 secs

     total energy              =   -1421.45702094 Ry
     estimated scf accuracy    <       0.10796077 Ry

     iteration #  6     ecut=    40.00 Ry     beta= 0.50
     Davidson diagonalization with overlap
     ethr =  5.75E-05,  avg # of iterations =  2.1

     total cpu time spent up to now is      290.6 secs

     total energy              =   -1421.46177890 Ry
     estimated scf accuracy    <       0.05220811 Ry

     iteration #  7     ecut=    40.00 Ry     beta= 0.50
     Davidson diagonalization with overlap
     ethr =  4.83E-05,  avg # of iterations =  1.0

     negative rho (up, down):  2.297E-02 0.000E+00

     total cpu time spent up to now is      328.8 secs

     total energy              =   -1421.45411923 Ry
     estimated scf accuracy    <       0.05533918 Ry

     iteration #  8     ecut=    40.00 Ry     beta= 0.50
     Davidson diagonalization with overlap
     ethr =  4.83E-05,  avg # of iterations =  2.0

     negative rho (up, down):  4.262E-02 0.000E+00

     total cpu time spent up to now is      363.5 secs

     total energy              =   -1421.45551389 Ry
     estimated scf accuracy    <       0.00966954 Ry

     iteration #  9     ecut=    40.00 Ry     beta= 0.50
     Davidson diagonalization with overlap
     ethr =  8.95E-06,  avg # of iterations =  6.8

     negative rho (up, down):  1.193E-02 0.000E+00

     total cpu time spent up to now is      406.7 secs

     total energy              =   -1421.45958300 Ry
     estimated scf accuracy    <       0.00983543 Ry

     iteration # 10     ecut=    40.00 Ry     beta= 0.50
     Davidson diagonalization with overlap
     ethr =  8.95E-06,  avg # of iterations =  2.5

     negative rho (up, down):  5.301E-03 0.000E+00

     total cpu time spent up to now is      441.7 secs

     total energy              =   -1421.45824413 Ry
     estimated scf accuracy    <       0.03366179 Ry

     iteration # 11     ecut=    40.00 Ry     beta= 0.50
     Davidson diagonalization with overlap
     ethr =  8.95E-06,  avg # of iterations =  2.0

     negative rho (up, down):  6.549E-04 0.000E+00

     total cpu time spent up to now is      472.7 secs

     total energy              =   -1421.45608349 Ry
     estimated scf accuracy    <       0.01414544 Ry

     iteration # 12     ecut=    40.00 Ry     beta= 0.50
     Davidson diagonalization with overlap
     ethr =  8.95E-06,  avg # of iterations =  2.0

     negative rho (up, down):  2.482E-04 0.000E+00

     total cpu time spent up to now is      507.2 secs

     total energy              =   -1421.45709202 Ry
     estimated scf accuracy    <       0.00092708 Ry

     iteration # 13     ecut=    40.00 Ry     beta= 0.50
     Davidson diagonalization with overlap
     c_bands:  1 eigenvalues not converged
     ethr =  8.58E-07,  avg # of iterations =  6.2

     negative rho (up, down):  2.824E-04 0.000E+00

     total cpu time spent up to now is      556.2 secs

     total energy              =   -1421.45762609 Ry
     estimated scf accuracy    <       0.00081475 Ry

     iteration # 14     ecut=    40.00 Ry     beta= 0.50
     Davidson diagonalization with overlap
     ethr =  7.54E-07,  avg # of iterations =  1.5

     negative rho (up, down):  2.766E-04 0.000E+00

     total cpu time spent up to now is      586.7 secs

     total energy              =   -1421.45750914 Ry
     estimated scf accuracy    <       0.00089229 Ry

     iteration # 15     ecut=    40.00 Ry     beta= 0.50
     Davidson diagonalization with overlap
     c_bands:  1 eigenvalues not converged
     ethr =  7.54E-07,  avg # of iterations =  2.1

     negative rho (up, down):  1.124E-04 0.000E+00

     total cpu time spent up to now is      619.6 secs

     total energy              =   -1421.45752324 Ry
     estimated scf accuracy    <       0.00015899 Ry

     iteration # 16     ecut=    40.00 Ry     beta= 0.50
     Davidson diagonalization with overlap
     ethr =  1.47E-07,  avg # of iterations =  3.2

     negative rho (up, down):  1.324E-05 0.000E+00

     total cpu time spent up to now is      653.7 secs

     total energy              =   -1421.45753451 Ry
     estimated scf accuracy    <       0.00002526 Ry

     iteration # 17     ecut=    40.00 Ry     beta= 0.50
     Davidson diagonalization with overlap
     ethr =  2.34E-08,  avg # of iterations =  6.3

     negative rho (up, down):  2.934E-05 0.000E+00

     total cpu time spent up to now is      700.5 secs

     total energy              =   -1421.45754488 Ry
     estimated scf accuracy    <       0.00001416 Ry

     iteration # 18     ecut=    40.00 Ry     beta= 0.50
     Davidson diagonalization with overlap
     ethr =  1.31E-08,  avg # of iterations =  3.0

     negative rho (up, down):  8.311E-05 0.000E+00

     total cpu time spent up to now is      734.2 secs

     total energy              =   -1421.45754657 Ry
     estimated scf accuracy    <       0.00000033 Ry

     iteration # 19     ecut=    40.00 Ry     beta= 0.50
     Davidson diagonalization with overlap
     c_bands:  1 eigenvalues not converged
     ethr =  3.05E-10,  avg # of iterations = 12.8

     negative rho (up, down):  6.423E-05 0.000E+00

     total cpu time spent up to now is      797.1 secs

     total energy              =   -1421.45754654 Ry
     estimated scf accuracy    <       0.00000287 Ry

     iteration # 20     ecut=    40.00 Ry     beta= 0.50
     Davidson diagonalization with overlap
     c_bands:  1 eigenvalues not converged
     ethr =  3.05E-10,  avg # of iterations =  6.7

     negative rho (up, down):  4.521E-05 0.000E+00

     total cpu time spent up to now is      853.3 secs

     total energy              =   -1421.45755061 Ry
     estimated scf accuracy    <       0.00000077 Ry

     iteration # 21     ecut=    40.00 Ry     beta= 0.50
     Davidson diagonalization with overlap
     ethr =  3.05E-10,  avg # of iterations =  2.0

     negative rho (up, down):  3.601E-05 0.000E+00

     total cpu time spent up to now is      893.4 secs

     End of self-consistent calculation

          k = 0.0139 0.0139 0.0000 ( 48331 PWs)   bands (ev):

   -10.4827  -9.1585  -8.6484  -8.6484  -8.3174  -8.3174  -7.3385  -7.3385
    -7.0336  -7.0102  -7.0102  -6.8388  -6.5128  -6.5127  -6.1878  -5.5428
    -5.2333  -5.2333  -5.2194  -5.2194  -4.9086  -4.9086  -4.8972  -4.2606
    -3.4573  -3.1378  -3.1378  -2.9663  -2.9663  -2.8196  -2.4982  -2.4982
    -2.3090  -2.3090  -2.1586  -2.1586  -1.9388  -1.7015  -1.7015  -1.5178
    -1.5100  -1.5100  -1.2092  -1.0826  -1.0826  -0.7443  -0.4404  -0.4404
    -0.2996  -0.2832  -0.2832  -0.2417  -0.2098  -0.2098   0.0089   0.0447
     0.0807   0.0807   0.2397   0.2397   0.2477   0.3734   0.3734   0.9853
     0.9856

          k = 0.0139 0.0417 0.0000 ( 48320 PWs)   bands (ev):

   -10.4547  -9.1307  -8.9525  -8.6208  -8.2899  -7.9597  -7.6402  -7.3111
    -7.1385  -7.0061  -6.9828  -6.8116  -6.6554  -6.1607  -5.8401  -5.8370
    -5.5316  -5.5158  -5.2061  -4.8816  -4.8704  -4.5580  -4.5495  -4.2333
    -3.7512  -3.5747  -3.4307  -2.9405  -2.7931  -2.7747  -2.4763  -2.4717
    -2.3049  -2.2832  -2.1317  -1.9755  -1.9128  -1.8259  -1.7939  -1.6760
    -1.6692  -1.6642  -1.1809  -1.0574  -1.0151  -0.7356  -0.7084  -0.6016
    -0.5667  -0.4250  -0.3190  -0.2118  -0.1840  -0.1361  -0.1136   0.0512
     0.1067   0.2804   0.3930   0.3984   0.4422   0.5671   0.7381   1.0099
     1.1450

          k = 0.0139 0.0694 0.0000 ( 48291 PWs)   bands (ev):

   -10.3988  -9.2295  -9.0752  -8.5656  -8.2348  -7.9150  -7.5756  -7.4117
    -7.2563  -7.0839  -6.9512  -6.9281  -6.2746  -6.1111  -5.8034  -5.7860
    -5.7829  -5.4607  -5.1519  -4.8275  -4.4962  -4.1828  -4.1787  -4.1769
    -4.1597  -4.0191  -3.6977  -3.0414  -2.8891  -2.8859  -2.4922  -2.4232
    -2.4188  -2.2359  -2.2317  -2.1085  -2.0780  -1.8652  -1.8607  -1.6249
    -1.4993  -1.3439  -1.2416  -1.2348  -1.0071  -0.9949  -0.9931  -0.9652
    -0.7842  -0.7428  -0.6175  -0.1324  -0.0654   0.1062   0.1585   0.2135
     0.2803   0.4483   0.5908   0.6989   0.7329   0.8490   0.9248   1.0662
     1.0990

          k = 0.0139 0.0972 0.0000 ( 48293 PWs)   bands (ev):

   -10.3149  -9.4792  -8.9920  -8.4828  -8.1628  -8.1522  -7.6580  -7.3296
    -7.1741  -7.1651  -6.8689  -6.8462  -6.3556  -6.0485  -6.0297  -5.8685
    -5.3799  -5.0706  -5.0597  -4.7464  -4.7221  -4.2608  -4.0980  -4.0969
    -3.9387  -3.7812  -3.7808  -3.4423  -3.2834  -3.0133  -2.8121  -2.7270
    -2.3395  -2.1548  -2.0691  -2.0302  -1.9975  -1.7827  -1.7558  -1.7179
    -1.5594  -1.5486  -1.4873  -1.4758  -1.4274  -1.2004  -1.0089  -0.9321
    -0.9122  -0.8160  -0.2964  -0.2325  -0.0550   0.2056   0.2361   0.4165
     0.5228   0.5270   0.7067   0.7224   0.8869   0.9668   1.0041   1.0628
     1.1051

          k = 0.0139 0.1250 0.0000 ( 48304 PWs)   bands (ev):

   -10.2032  -9.7016  -8.8812  -8.3835  -8.3725  -8.0422  -7.8774  -7.5484
    -7.0647  -6.7592  -6.7370  -6.7288  -6.5733  -6.2668  -6.2469  -5.4508
    -5.2447  -4.9623  -4.9524  -4.6383  -4.6346  -4.4762  -4.1535  -3.9879
    -3.9790  -3.6929  -3.5069  -3.4993  -3.3789  -3.3515  -3.2057  -2.7100
    -2.2623  -2.2605  -2.2340  -2.0529  -1.9668  -1.9408  -1.8904  -1.7637
    -1.6788  -1.6123  -1.6106  -1.4475  -1.4113  -1.3024  -1.2135  -1.0037
    -0.8329  -0.5703  -0.4052  -0.2437   0.0476   0.0479   0.3395   0.4166
     0.5068   0.6214   0.6938   0.8017   0.8313   1.0518   1.0818   1.2278
     1.4335

          k = 0.0139 0.1528 0.0000 ( 48302 PWs)   bands (ev):

   -10.0637  -9.8965  -8.7428  -8.5768  -8.2348  -8.0698  -7.9049  -7.7402
    -6.9280  -6.7641  -6.6222  -6.6006  -6.4581  -6.4372  -6.2670  -5.7810
    -4.9689  -4.8270  -4.6649  -4.5034  -4.5014  -4.4869  -4.3417  -4.1871
    -4.0290  -3.8519  -3.7196  -3.6889  -3.2186  -2.9085  -2.9015  -2.7511
    -2.5833  -2.4465  -2.4329  -2.4285  -2.1026  -1.9455  -1.9271  -1.7788
    -1.7568  -1.5970  -1.5491  -1.3939  -1.3221  -1.1736  -1.1736  -0.8679
    -0.7150  -0.7106  -0.5669  -0.4151  -0.1516   0.1762   0.2851   0.3294
     0.4685   0.6228   0.7435   0.8877   1.1336   1.2525   1.3461   1.4845
     1.4949

          k = 0.0417 0.0417 0.0000 ( 48283 PWs)   bands (ev):

   -10.4267  -9.1030  -8.9248  -8.9248  -7.9323  -7.9323  -7.6127  -7.6127
    -7.4390  -6.9787  -6.6281  -6.6281  -6.4584  -6.4584  -6.1382  -5.5044
    -5.5044  -5.4877  -5.1656  -5.1656  -4.5310  -4.5310  -4.2060  -4.2034
    -4.0459  -3.5486  -3.5486  -3.0847  -3.0847  -2.7478  -2.7478  -2.2790
    -2.2790  -2.2039  -2.2039  -2.1349  -1.8867  -1.7991  -1.7991  -1.7749
    -1.6443  -1.6443  -1.3109  -0.9550  -0.9550  -0.8489  -0.5757  -0.5757
    -0.5567  -0.3865  -0.3784  -0.3784  -0.2945  -0.2945  -0.1865  -0.1865
     0.3691   0.4189   0.4189   0.5792   0.6082   0.8755   0.9264   1.0098
     1.0099

          k = 0.0417 0.0694 0.0000 ( 48291 PWs)   bands (ev):

   -10.3708  -9.2017  -9.0475  -8.8695  -7.8875  -7.8773  -7.7129  -7.5578
    -7.5482  -6.9238  -6.7298  -6.5736  -6.4099  -6.2474  -6.0794  -5.7761
    -5.4500  -5.4349  -5.1134  -4.7901  -4.4770  -4.3145  -4.1559  -4.1514
    -4.1333  -3.8330  -3.4964  -3.3508  -3.0144  -2.8598  -2.7514  -2.7130
    -2.6940  -2.4352  -2.2272  -2.0264  -1.8347  -1.7695  -1.7456  -1.5948
    -1.5738  -1.4942  -1.4726  -1.1805  -0.9690  -0.7989  -0.7832  -0.7581
    -0.7172  -0.6355  -0.5238  -0.3414  -0.2458  -0.1358  -0.0529   0.3038
     0.4261   0.4708   0.6032   0.6506   0.7249   0.8792   0.9012   0.9551
     0.9604

          k = 0.0417 0.0972 0.0000 ( 48284 PWs)   bands (ev):

   -10.2870  -9.4514  -8.9643  -8.7865  -8.1353  -7.9598  -7.7950  -7.4755
    -7.1378  -6.9747  -6.8415  -6.6550  -6.4919  -6.0212  -5.8414  -5.6778
    -5.6748  -5.3685  -4.7148  -4.6955  -4.5569  -4.3962  -4.3903  -4.0696
    -3.7543  -3.5909  -3.4395  -3.4182  -3.4161  -3.2869  -3.2563  -2.6540
    -2.6134  -2.4436  -2.3183  -2.1498  -2.0248  -1.8121  -1.7567  -1.6655
    -1.5210  -1.4610  -1.3951  -1.3824  -1.2016  -0.9829  -0.8861  -0.8772
    -0.8706  -0.4462  -0.2735  -0.1734  -0.0836  -0.0649  -0.0601   0.2921
     0.4787   0.4805   0.5486   0.6734   0.7797   0.9128   0.9890   1.1964
     1.3418

          k = 0.0417 0.1250 0.0000 ( 48328 PWs)   bands (ev):

   -10.1753  -9.6738  -8.8535  -8.6760  -8.3559  -8.1798  -7.6853  -7.3657
    -7.1929  -6.8733  -6.7318  -6.7016  -6.3830  -6.2394  -5.8943  -5.4239
    -5.2600  -5.2454  -5.2178  -4.7728  -4.2932  -4.2884  -3.9827  -3.9606
    -3.9523  -3.8050  -3.7891  -3.4722  -3.3248  -3.3144  -3.0422  -2.8915
    -2.8537  -2.5400  -2.5060  -2.0470  -2.0248  -1.9145  -1.8987  -1.6604
    -1.6528  -1.5918  -1.5587  -1.4241  -1.1874  -1.0811  -1.0206  -0.9705
    -0.5441  -0.5181  -0.3431  -0.0780   0.0403   0.1101   0.2653   0.3229
     0.3593   0.4379   0.4833   0.6521   0.7196   0.8340   1.1156   1.4662
     1.7222

          k = 0.0417 0.1528 0.0000 ( 48301 PWs)   bands (ev):

   -10.0358  -9.8686  -8.7151  -8.5492  -8.5380  -8.3725  -7.5483  -7.3841
    -7.2288  -7.0646  -6.5948  -6.4307  -6.2470  -6.2399  -6.0841  -5.7541
    -5.1244  -4.9620  -4.9420  -4.7919  -4.4601  -4.3162  -4.1539  -3.9927
    -3.8506  -3.8246  -3.6618  -3.5058  -3.3909  -3.1852  -3.0345  -3.0313
    -2.8750  -2.5775  -2.4021  -2.3720  -2.2116  -2.1242  -1.9192  -1.7671
    -1.5231  -1.4570  -1.4256  -1.3678  -1.3056  -1.2663  -1.1688  -0.9944
    -0.5419  -0.2149  -0.1256  -0.0986  -0.0628   0.0387   0.1650   0.1739
     0.3110   0.3131   0.6839   0.7814   0.9360   1.1270   1.1530   1.2465
     1.6747

          k = 0.0694 0.0694 0.0000 ( 48265 PWs)   bands (ev):

   -10.3149  -9.1463  -9.1463  -8.9920  -7.9873  -7.8325  -7.8325  -7.4934
    -7.4934  -6.8689  -6.6823  -6.3497  -6.3497  -6.1930  -6.1930  -5.7217
    -5.7217  -5.0582  -5.0582  -4.7416  -4.5838  -4.1021  -4.1021  -4.0969
    -4.0804  -4.0804  -3.4651  -2.9983  -2.9983  -2.9771  -2.9771  -2.9605
    -2.9605  -2.8075  -2.8075  -1.9804  -1.8368  -1.7827  -1.7359  -1.7359
    -1.4192  -1.4192  -1.4073  -0.9212  -0.9212  -0.7623  -0.7060  -0.7060
    -0.6661  -0.6661  -0.5933  -0.4368  -0.3105  -0.3105   0.3502   0.3502
     0.3735   0.3735   0.3811   0.7138   0.7768   0.7768   0.7809   1.0216
     1.2550

          k = 0.0694 0.0972 0.0000 ( 48277 PWs)   bands (ev):

   -10.2311  -9.3959  -9.0632  -8.9089  -8.2348  -8.0801  -7.7500  -7.4113
    -7.0833  -6.9279  -6.7866  -6.5938  -6.1115  -5.9667  -5.9440  -5.7872
    -5.6400  -5.3003  -4.8267  -4.6571  -4.6422  -4.3464  -4.0216  -4.0151
    -4.0013  -3.7005  -3.5414  -3.3635  -3.2270  -3.2147  -3.2022  -3.0753
    -2.8796  -2.7293  -2.5816  -2.2758  -2.2069  -2.0757  -1.9596  -1.7046
    -1.4082  -1.3392  -1.0263  -0.9767  -0.9308  -0.8505  -0.8341  -0.6278
    -0.5896  -0.5455  -0.5247  -0.3448  -0.3173  -0.2282   0.1509   0.1584
     0.2366   0.4188   0.7645   0.8547   0.8843   0.9646   1.0115   1.0327
     1.3883

          k = 0.0694 0.1250 0.0000 ( 48305 PWs)   bands (ev):

   -10.1195  -9.6182  -8.9524  -8.7981  -8.4552  -8.3007  -7.6400  -7.3020
    -7.1466  -6.8112  -6.6770  -6.6472  -6.1848  -6.0030  -5.5313  -5.5159
    -5.5130  -5.3701  -5.1641  -5.0430  -4.2475  -4.0491  -3.9298  -3.9143
    -3.9062  -3.8991  -3.8959  -3.4353  -3.4247  -3.4180  -3.2716  -2.7964
    -2.7718  -2.6867  -2.6252  -2.5779  -2.2891  -2.1619  -2.1605  -1.8619
    -1.6007  -1.3598  -1.2327  -1.1353  -0.7716  -0.7586  -0.7559  -0.6189
    -0.5235  -0.4919  -0.4880  -0.4115  -0.2407  -0.0559  -0.0372   0.4795
     0.5076   0.5867   0.6464   0.7712   0.8329   0.9305   0.9583   1.1976
     1.4229

          k = 0.0694 0.1528 0.0000 ( 48303 PWs)   bands (ev):

    -9.9800  -9.8129  -8.8141  -8.6597  -8.6484  -8.4939  -7.5028  -7.3383
    -7.1654  -7.0018  -6.5401  -6.3760  -6.1858  -5.8675  -5.7051  -5.7002
    -5.3955  -5.2327  -5.0576  -4.8882  -4.5794  -4.4066  -3.7805  -3.7702
    -3.7688  -3.7647  -3.6206  -3.6076  -3.6074  -3.4950  -3.2948  -3.0491
    -2.8219  -2.6374  -2.4956  -2.4764  -2.3492  -2.3410  -2.2293  -1.7914
    -1.7166  -1.4710  -1.3158  -1.2513  -1.0999  -0.9408  -0.6487  -0.5275
    -0.3934  -0.3616  -0.2375  -0.2110  -0.2000  -0.0735   0.1352   0.2341
     0.3628   0.5721   0.6129   0.7273   1.0003   1.0878   1.1897   1.2428
     1.4301

          k = 0.0972 0.0972 0.0000 ( 48275 PWs)   bands (ev):

   -10.1474  -9.3126  -9.3126  -8.8258  -8.4828  -7.9975  -7.9975  -7.1739
    -7.0015  -7.0014  -6.7044  -6.1869  -6.1869  -5.8849  -5.8849  -5.7061
    -5.7061  -5.0701  -4.8980  -4.8980  -4.5625  -4.5625  -3.9563  -3.9334
    -3.7737  -3.7737  -3.6199  -3.6199  -3.2847  -3.2847  -3.1211  -3.1211
    -2.8196  -2.8196  -2.6903  -2.5053  -2.5053  -2.3152  -2.1345  -1.6266
    -1.3292  -1.3292  -0.9164  -0.8527  -0.8527  -0.7562  -0.7562  -0.7549
    -0.6449  -0.5476  -0.5476  -0.1622  -0.1622  -0.0765   0.0118   0.0118
     0.0270   0.5291   1.0424   1.0424   1.0772   1.0841   1.0963   1.0963
     1.2444

          k = 0.0972 0.1250 0.0000 ( 48248 PWs)   bands (ev):

   -10.0358  -9.5348  -9.2017  -8.7151  -8.7036  -8.2179  -7.8874  -7.3930
    -6.8925  -6.5948  -6.5657  -6.4035  -6.1029  -5.7759  -5.7547  -5.5979
    -5.2894  -5.2868  -5.1128  -5.0835  -4.4867  -4.4564  -4.2854  -3.9822
    -3.8245  -3.8192  -3.5475  -3.5126  -3.3367  -3.1917  -3.1799  -3.0320
    -3.0296  -3.0131  -2.7113  -2.5291  -2.3972  -2.3508  -2.2742  -1.7830
    -1.5227  -1.2241  -1.1094  -1.0573  -1.0023  -0.7542  -0.7486  -0.6597
    -0.6526  -0.4136  -0.2821  -0.2521  -0.1907  -0.0784   0.1457   0.3595
     0.4413   0.5383   0.7555   0.8485   0.8895   1.1459   1.1762   1.3719
     1.6121

          k = 0.0972 0.1528 0.0000 ( 48260 PWs)   bands (ev):

    -9.8964  -9.7294  -9.0631  -8.8971  -8.5768  -8.4110  -7.7499  -7.5851
    -6.7564  -6.5934  -6.4580  -6.2940  -6.1047  -5.6399  -5.6195  -5.4768
    -5.4629  -5.3011  -5.2978  -4.8177  -4.8076  -4.3264  -4.3241  -4.1659
    -4.0068  -3.6887  -3.5308  -3.5260  -3.3787  -3.2184  -3.1266  -3.0492
    -2.8928  -2.8783  -2.7423  -2.7169  -2.7094  -2.2700  -1.9516  -1.8716
    -1.4842  -1.4647  -1.3930  -1.2377  -1.0930  -0.9362  -0.6187  -0.5236
    -0.4631  -0.3694  -0.3511   0.0044   0.0164   0.0457   0.1059   0.1576
     0.4403   0.5471   0.7741   0.9767   1.2054   1.2379   1.2650   1.2752
     1.3453

          k = 0.1250 0.1250 0.0000 ( 48243 PWs)   bands (ev):

    -9.9243  -9.4236  -9.4236  -8.9247  -8.6044  -8.1076  -8.1076  -7.6125
    -6.4853  -6.4572  -6.4572  -5.9938  -5.9938  -5.9702  -5.9702  -5.5039
    -5.1820  -5.1820  -4.9763  -4.9763  -4.7000  -4.7000  -4.4968  -4.4968
    -3.7158  -3.7131  -3.7131  -3.2385  -3.2385  -3.2285  -3.2285  -3.1526
    -3.0854  -3.0854  -2.7434  -2.6083  -2.6083  -2.2372  -1.9035  -1.6781
    -1.6781  -1.4188  -1.2089  -1.2089  -1.0191  -0.9533  -0.9533  -0.8636
    -0.4873  -0.3095  -0.3095  -0.0165   0.1319   0.1553   0.1553   0.5202
     0.5428   0.6080   0.6080   0.9513   0.9513   0.9746   1.3313   1.4104
     1.4104

          k = 0.1250 0.1528 0.0000 ( 48229 PWs)   bands (ev):

    -9.7850  -9.6181  -9.2849  -9.1185  -8.4662  -8.3006  -7.9699  -7.8048
    -6.3486  -6.3216  -6.1847  -6.1593  -5.9966  -5.8575  -5.6942  -5.5121
    -5.5120  -5.0478  -5.0305  -4.8871  -4.8427  -4.7002  -4.6827  -4.2196
    -4.2193  -3.7417  -3.5807  -3.5801  -3.4224  -3.4176  -3.0934  -2.9526
    -2.9317  -2.7935  -2.7608  -2.6363  -2.4158  -2.1646  -2.1615  -1.6925
    -1.5472  -1.5216  -1.3907  -1.2891  -1.1883  -1.1338  -0.8235  -0.7458
    -0.6680  -0.4175  -0.1798  -0.0247   0.1081   0.4841   0.5434   0.5709
     0.6135   0.6724   0.6871   0.8080   0.9197   1.0035   1.0794   1.2326
     1.2821

          k = 0.1528 0.1528 0.0000 ( 48245 PWs)   bands (ev):

    -9.6459  -9.4792  -9.4792  -9.3126  -8.3282  -8.1627  -8.1627  -7.9974
    -6.2120  -6.0483  -6.0483  -5.8847  -5.8617  -5.8617  -5.7002  -5.7002
    -5.3779  -5.3779  -5.2173  -5.2173  -4.5663  -4.5663  -4.4059  -4.4059
    -4.0865  -4.0865  -3.9270  -3.9270  -3.4446  -3.2823  -3.2823  -3.1202
    -2.5041  -2.5041  -2.4414  -2.3457  -2.3457  -2.2886  -2.0330  -2.0330
    -1.8756  -1.8756  -1.2208  -1.1593  -1.0705  -1.0040  -1.0040  -0.9297
    -0.8486  -0.7862   0.2373   0.2373   0.3917   0.3917   0.4274   0.5682
     0.6719   0.6719   0.7914   0.8254   0.8254   0.9233   1.1105   1.2776
     1.2776

     the Fermi energy is     0.0758 ev

!    total energy              =   -1421.45755059 Ry
     total all-electron energy =    -17482.597688 Ry
     estimated scf accuracy    <       0.00000010 Ry
     smearing contrib. (-TS)   =      -0.00112913 Ry
     internal energy E=F+TS    =   -1421.45642146 Ry

     The total energy is F=E-TS. E is the sum of the following terms:
     one-electron contribution =   -1539.69733070 Ry
     hartree contribution      =     796.02458425 Ry
     xc contribution           =     -91.10045104 Ry
     ewald contribution        =     661.72892460 Ry
     one-center paw contrib.   =   -1248.41214857 Ry

     convergence has been achieved in  21 iterations

     negative rho (up, down):  3.601E-05 0.000E+00

     Forces acting on atoms (cartesian axes, Ry/au):

     atom    1 type  1   force =     0.00000000    0.00000000   -0.00490826
     atom    2 type  1   force =     0.00000000   -0.00000010   -0.00490819
     atom    3 type  1   force =     0.00000000    0.00000010   -0.00490819
     atom    4 type  1   force =    -0.00000010    0.00000000   -0.00490819
     atom    5 type  1   force =     0.00000005    0.00000005   -0.00490833
     atom    6 type  1   force =     0.00000005   -0.00000005   -0.00490833
     atom    7 type  1   force =     0.00000010    0.00000000   -0.00490819
     atom    8 type  1   force =    -0.00000005    0.00000005   -0.00490833
     atom    9 type  1   force =    -0.00000005   -0.00000005   -0.00490833
     atom   10 type  1   force =    -0.00000033   -0.00000033    0.00511990
     atom   11 type  1   force =     0.00000004    0.00000000    0.00511954
     atom   12 type  1   force =    -0.00000033    0.00000033    0.00511990
     atom   13 type  1   force =     0.00000000    0.00000004    0.00511954
     atom   14 type  1   force =     0.00000000    0.00000000    0.00511931
     atom   15 type  1   force =     0.00000000   -0.00000004    0.00511954
     atom   16 type  1   force =     0.00000033   -0.00000033    0.00511990
     atom   17 type  1   force =    -0.00000004    0.00000000    0.00511954
     atom   18 type  1   force =     0.00000033    0.00000033    0.00511990
     atom   19 type  1   force =     0.00000000    0.00000000    0.00004105
     atom   20 type  1   force =     0.00000000   -0.00000026    0.00004236
     atom   21 type  1   force =     0.00000000    0.00000026    0.00004236
     atom   22 type  1   force =    -0.00000026    0.00000000    0.00004236
     atom   23 type  1   force =     0.00000008    0.00000008    0.00004310
     atom   24 type  1   force =     0.00000008   -0.00000008    0.00004310
     atom   25 type  1   force =     0.00000026    0.00000000    0.00004236
     atom   26 type  1   force =    -0.00000008    0.00000008    0.00004310
     atom   27 type  1   force =    -0.00000008   -0.00000008    0.00004310
     atom   28 type  1   force =     0.00000019    0.00000019   -0.00025390
     atom   29 type  1   force =     0.00000029    0.00000000   -0.00025389
     atom   30 type  1   force =     0.00000019   -0.00000019   -0.00025390
     atom   31 type  1   force =     0.00000000    0.00000029   -0.00025389
     atom   32 type  1   force =     0.00000000    0.00000000   -0.00025449
     atom   33 type  1   force =     0.00000000   -0.00000029   -0.00025389
     atom   34 type  1   force =    -0.00000019    0.00000019   -0.00025390
     atom   35 type  1   force =    -0.00000029    0.00000000   -0.00025389
     atom   36 type  1   force =    -0.00000019   -0.00000019   -0.00025390

     Total force =     0.000772     Total SCF correction =     0.000236
     SCF correction compared to forces is large: reduce conv_thr to get better values

     BFGS Geometry Optimization
     Energy error            =      0.0E+00 Ry
     Gradient error          =      2.5E-04 Ry/Bohr

     bfgs converged in   1 scf cycles and   0 bfgs steps
     (criteria: energy <  1.0E-04 Ry, force <  1.0E-03 Ry/Bohr)

     End of BFGS Geometry Optimization

     Final energy             =   -1421.4575505904 Ry
Begin final coordinates

ATOMIC_POSITIONS (alat)
Al               0.0000000000        0.0000000000        0.0000000000    0   0   0
Al               0.0000000000        0.9999999976        0.0000000000    0   0   0
Al               0.0000000000        1.9999999953        0.0000000000    0   0   0
Al               0.9999999976        0.0000000000        0.0000000000    0   0   0
Al               0.9999999976        0.9999999976        0.0000000000    0   0   0
Al               0.9999999976        1.9999999953        0.0000000000    0   0   0
Al               1.9999999953        0.0000000000        0.0000000000    0   0   0
Al               1.9999999953        0.9999999976        0.0000000000    0   0   0
Al               1.9999999953        1.9999999953        0.0000000000    0   0   0
Al               0.4999999988        0.4999999988        0.7071067673    0   0   0
Al               0.4999999988        1.4999999965        0.7071067673    0   0   0
Al               0.4999999988        2.4999999941        0.7071067673    0   0   0
Al               1.4999999965        0.4999999988        0.7071067673    0   0   0
Al               1.4999999965        1.4999999965        0.7071067673    0   0   0
Al               1.4999999965        2.4999999941        0.7071067673    0   0   0
Al               2.4999999941        0.4999999988        0.7071067673    0   0   0
Al               2.4999999941        1.4999999965        0.7071067673    0   0   0
Al               2.4999999941        2.4999999941        0.7071067673    0   0   0
Al               0.0000000000        0.0000000000        1.4307627046    0   0   1
Al               0.0000000000        0.9999999976        1.4307591089    0   0   1
Al               0.0000000000        1.9999999953        1.4307591089    0   0   1
Al               0.9999999976        0.0000000000        1.4307591089    0   0   1
Al               0.9999999976        0.9999999976        1.4307581502    0   0   1
Al               0.9999999976        1.9999999953        1.4307581502    0   0   1
Al               1.9999999953        0.0000000000        1.4307591089    0   0   1
Al               1.9999999953        0.9999999976        1.4307581502    0   0   1
Al               1.9999999953        1.9999999953        1.4307581502    0   0   1
Al               0.4999999988        0.4999999988        2.1566262357    0   0   1
Al               0.4999999988        1.4999999965        2.1566250477    0   0   1
Al               0.4999999988        2.4999999941        2.1566262357    0   0   1
Al               1.4999999965        0.4999999988        2.1566250477    0   0   1
Al               1.4999999965        1.4999999965        2.1566273052    0   0   1
Al               1.4999999965        2.4999999941        2.1566250477    0   0   1
Al               2.4999999941        0.4999999988        2.1566262357    0   0   1
Al               2.4999999941        1.4999999965        2.1566250477    0   0   1
Al               2.4999999941        2.4999999941        2.1566262357    0   0   1
End final coordinates



     Writing all to output data dir ./tmp/Al.save/ :
     XML data file, charge density, pseudopotentials, collected wavefunctions

     init_run     :     23.45s CPU     28.52s WALL (       1 calls)
     electrons    :    789.31s CPU    863.75s WALL (       1 calls)
     forces       :     10.50s CPU     12.62s WALL (       1 calls)

     Called by init_run:
     wfcinit      :     19.12s CPU     23.17s WALL (       1 calls)
     potinit      :      2.47s CPU      2.89s WALL (       1 calls)
     hinit0       :      0.52s CPU      0.65s WALL (       1 calls)

     Called by electrons:
     c_bands      :    569.37s CPU    616.90s WALL (      21 calls)
     sum_band     :    129.99s CPU    143.70s WALL (      21 calls)
     v_of_rho     :     24.97s CPU     29.21s WALL (      22 calls)
     newd         :     12.24s CPU     16.64s WALL (      22 calls)
     PAW_pot      :     12.72s CPU     13.34s WALL (      22 calls)
     mix_rho      :     36.88s CPU     40.46s WALL (      21 calls)

     Called by c_bands:
     init_us_2    :     27.52s CPU     29.76s WALL (     132 calls)
     cegterg      :    501.55s CPU    545.22s WALL (      63 calls)

     Called by *egterg:
     cdiaghg      :      1.62s CPU      1.71s WALL (     355 calls)
     h_psi        :    406.08s CPU    444.59s WALL (     358 calls)
     s_psi        :     57.46s CPU     60.73s WALL (     358 calls)
     g_psi        :      0.92s CPU      0.97s WALL (     292 calls)

     Called by h_psi:
     h_psi:calbec :     52.47s CPU     56.81s WALL (     358 calls)
     vloc_psi     :    295.53s CPU    324.57s WALL (     358 calls)
     add_vuspsi   :     56.59s CPU     60.05s WALL (     358 calls)

     General routines
     calbec       :     72.58s CPU     78.60s WALL (     433 calls)
     fft          :     15.37s CPU     18.11s WALL (     295 calls)
     ffts         :     17.98s CPU     19.88s WALL (    2035 calls)
     fftw         :    243.07s CPU    269.31s WALL (   27321 calls)
     interpolate  :      2.01s CPU      2.29s WALL (      22 calls)

     Parallel routines

     PWSCF        :  13m44.88s CPU  15m 8.55s WALL


   This run was terminated on:  17:43: 1  19May2025            

=------------------------------------------------------------------------------=
   JOB DONE.
=------------------------------------------------------------------------------=
