
     Program PWSCF v.6.7MaX starts on 14May2025 at 15:29: 7 

     This program is part of the open-source Quantum ESPRESSO suite
     for quantum simulation of materials; please cite
         "P. Giannozzi et al., J. Phys.:Condens. Matter 21 395502 (2009);
         "P. Giannozzi et al., J. Phys.:Condens. Matter 29 465901 (2017);
          URL http://www.quantum-espresso.org", 
     in publications or presentations arising from this work. More details at
     http://www.quantum-espresso.org/quote

     Parallel version (MPI & OpenMP), running on      32 processor cores
     Number of MPI processes:                 4
     Threads/MPI process:                     8

     MPI processes distributed on     1 nodes
     R & G space division:  proc/nbgrp/npool/nimage =       4
     Reading input from al001_3x3_test.in

     Current dimensions of program PWSCF are:
     Max number of different atomic species (ntypx) = 10
     Max number of k-points (npk) =  40000
     Max angular momentum in pseudopotentials (lmaxx) =  3
     file Al.pbe-n-kjpaw_psl.1.0.0.UPF: wavefunction(s)  3S 3P renormalized

     Subspace diagonalization in iterative solution of the eigenvalue problem:
     a serial algorithm will be used

     Found symmetry operation: I + (  0.0000  0.3333  0.0000)
     This is a supercell, fractional translations are disabled
     Message from routine setup:
     using ibrav=0 with symmetry is DISCOURAGED, use correct ibrav instead

     Parallelization info
     --------------------
     sticks:   dense  smooth     PW     G-vecs:    dense   smooth      PW
     Min        1047     416    117               135019    34125    5021
     Max        1048     418    119               135026    34130    5025
     Sum        4189    1669    473               540087   136511   20089



     bravais-lattice index     =            0
     lattice parameter (alat)  =       5.3944  a.u.
     unit-cell volume          =   11302.2493 (a.u.)^3
     number of atoms/cell      =           36
     number of atomic types    =            1
     number of electrons       =       108.00
     number of Kohn-Sham states=           65
     kinetic-energy cutoff     =      20.0000  Ry
     charge density cutoff     =     200.0000  Ry
     scf convergence threshold =      1.0E-07
     mixing beta               =       0.5000
     number of iterations used =            8  local-TF  mixing
     energy convergence thresh.=      1.0E-04
     force convergence thresh. =      1.0E-03
     Exchange-correlation= SLA  PW   PBX  PBC
                           (   1   4   3   4   0   0   0)
     nstep                     =           50


     celldm(1)=   5.394412  celldm(2)=   0.000000  celldm(3)=   0.000000
     celldm(4)=   0.000000  celldm(5)=   0.000000  celldm(6)=   0.000000

     crystal axes: (cart. coord. in units of alat)
               a(1) = (   3.000000   0.000000   0.000000 )  
               a(2) = (   0.000000   3.000000   0.000000 )  
               a(3) = (   0.000000   0.000000   8.000000 )  

     reciprocal axes: (cart. coord. in units 2 pi/alat)
               b(1) = (  0.333333  0.000000  0.000000 )  
               b(2) = (  0.000000  0.333333  0.000000 )  
               b(3) = (  0.000000  0.000000  0.125000 )  


     PseudoPot. # 1 for Al read from file:
     ../../Pseudo/Al.pbe-n-kjpaw_psl.1.0.0.UPF
     MD5 check sum: dd5adf945272da8132fc805c9e56c2d6
     Pseudo is Projector augmented-wave + core cor, Zval =  3.0
     Generated using "atomic" code by A. Dal Corso  v.5.1
     Shape of augmentation charge: PSQ
     Using radial grid of 1135 points,  6 beta functions with: 
                l(1) =   0
                l(2) =   0
                l(3) =   1
                l(4) =   1
                l(5) =   2
                l(6) =   2
     Q(r) pseudized with 0 coefficients 


     atomic species   valence    mass     pseudopotential
        Al             3.00     1.00000     Al( 1.00)

      8 Sym. Ops. (no inversion) found



   Cartesian axes

     site n.     atom                  positions (alat units)
         1           Al  tau(   1) = (   0.0000000   0.0000000   0.0000000  )
         2           Al  tau(   2) = (   0.0000000   1.0000000   0.0000000  )
         3           Al  tau(   3) = (   0.0000000   2.0000000   0.0000000  )
         4           Al  tau(   4) = (   1.0000000   0.0000000   0.0000000  )
         5           Al  tau(   5) = (   1.0000000   1.0000000   0.0000000  )
         6           Al  tau(   6) = (   1.0000000   2.0000000   0.0000000  )
         7           Al  tau(   7) = (   2.0000000   0.0000000   0.0000000  )
         8           Al  tau(   8) = (   2.0000000   1.0000000   0.0000000  )
         9           Al  tau(   9) = (   2.0000000   2.0000000   0.0000000  )
        10           Al  tau(  10) = (   0.5000000   0.5000000   0.7071068  )
        11           Al  tau(  11) = (   0.5000000   1.5000000   0.7071068  )
        12           Al  tau(  12) = (   0.5000000   2.5000000   0.7071068  )
        13           Al  tau(  13) = (   1.5000000   0.5000000   0.7071068  )
        14           Al  tau(  14) = (   1.5000000   1.5000000   0.7071068  )
        15           Al  tau(  15) = (   1.5000000   2.5000000   0.7071068  )
        16           Al  tau(  16) = (   2.5000000   0.5000000   0.7071068  )
        17           Al  tau(  17) = (   2.5000000   1.5000000   0.7071068  )
        18           Al  tau(  18) = (   2.5000000   2.5000000   0.7071068  )
        19           Al  tau(  19) = (   0.0000000   0.0000000   1.4307627  )
        20           Al  tau(  20) = (   0.0000000   1.0000000   1.4307591  )
        21           Al  tau(  21) = (   0.0000000   2.0000000   1.4307591  )
        22           Al  tau(  22) = (   1.0000000   0.0000000   1.4307591  )
        23           Al  tau(  23) = (   1.0000000   1.0000000   1.4307582  )
        24           Al  tau(  24) = (   1.0000000   2.0000000   1.4307582  )
        25           Al  tau(  25) = (   2.0000000   0.0000000   1.4307591  )
        26           Al  tau(  26) = (   2.0000000   1.0000000   1.4307582  )
        27           Al  tau(  27) = (   2.0000000   2.0000000   1.4307582  )
        28           Al  tau(  28) = (   0.5000000   0.5000000   2.1566262  )
        29           Al  tau(  29) = (   0.5000000   1.5000000   2.1566250  )
        30           Al  tau(  30) = (   0.5000000   2.5000000   2.1566262  )
        31           Al  tau(  31) = (   1.5000000   0.5000000   2.1566250  )
        32           Al  tau(  32) = (   1.5000000   1.5000000   2.1566273  )
        33           Al  tau(  33) = (   1.5000000   2.5000000   2.1566250  )
        34           Al  tau(  34) = (   2.5000000   0.5000000   2.1566262  )
        35           Al  tau(  35) = (   2.5000000   1.5000000   2.1566250  )
        36           Al  tau(  36) = (   2.5000000   2.5000000   2.1566262  )

     number of k points=    21  Marzari-Vanderbilt smearing, width (Ry)=  0.0500
                       cart. coord. in units 2pi/alat
        k(    1) = (   0.0138889   0.0138889   0.0000000), wk =   0.0555556
        k(    2) = (   0.0138889   0.0416667   0.0000000), wk =   0.1111111
        k(    3) = (   0.0138889   0.0694444   0.0000000), wk =   0.1111111
        k(    4) = (   0.0138889   0.0972222   0.0000000), wk =   0.1111111
        k(    5) = (   0.0138889   0.1250000   0.0000000), wk =   0.1111111
        k(    6) = (   0.0138889   0.1527778   0.0000000), wk =   0.1111111
        k(    7) = (   0.0416667   0.0416667   0.0000000), wk =   0.0555556
        k(    8) = (   0.0416667   0.0694444   0.0000000), wk =   0.1111111
        k(    9) = (   0.0416667   0.0972222   0.0000000), wk =   0.1111111
        k(   10) = (   0.0416667   0.1250000   0.0000000), wk =   0.1111111
        k(   11) = (   0.0416667   0.1527778   0.0000000), wk =   0.1111111
        k(   12) = (   0.0694444   0.0694444   0.0000000), wk =   0.0555556
        k(   13) = (   0.0694444   0.0972222   0.0000000), wk =   0.1111111
        k(   14) = (   0.0694444   0.1250000   0.0000000), wk =   0.1111111
        k(   15) = (   0.0694444   0.1527778   0.0000000), wk =   0.1111111
        k(   16) = (   0.0972222   0.0972222   0.0000000), wk =   0.0555556
        k(   17) = (   0.0972222   0.1250000   0.0000000), wk =   0.1111111
        k(   18) = (   0.0972222   0.1527778   0.0000000), wk =   0.1111111
        k(   19) = (   0.1250000   0.1250000   0.0000000), wk =   0.0555556
        k(   20) = (   0.1250000   0.1527778   0.0000000), wk =   0.1111111
        k(   21) = (   0.1527778   0.1527778   0.0000000), wk =   0.0555556

     Dense  grid:   540087 G-vectors     FFT dimensions: (  75,  75, 200)

     Smooth grid:   136511 G-vectors     FFT dimensions: (  48,  48, 125)

     Estimated max dynamical RAM per process >     813.91 MB

     Estimated total dynamical RAM >       3.18 GB

     Initial potential from superposition of free atoms

     starting charge  107.91755, renormalised to  108.00000

     negative rho (up, down):  2.512E-04 0.000E+00
     Starting wfcs are  144 randomized atomic wfcs
     Checking if some PAW data can be deallocated... 

     total cpu time spent up to now is       48.9 secs

     Self-consistent Calculation

     iteration #  1     ecut=    20.00 Ry     beta= 0.50
     Davidson diagonalization with overlap
     ethr =  1.00E-02,  avg # of iterations =  3.8

     total cpu time spent up to now is      135.7 secs

     total energy              =   -1421.44356012 Ry
     estimated scf accuracy    <       1.82143162 Ry

     iteration #  2     ecut=    20.00 Ry     beta= 0.50
     Davidson diagonalization with overlap
     ethr =  1.69E-03,  avg # of iterations =  3.4

     total cpu time spent up to now is      205.5 secs

     total energy              =   -1421.21093291 Ry
     estimated scf accuracy    <       1.22775654 Ry

     iteration #  3     ecut=    20.00 Ry     beta= 0.50
     Davidson diagonalization with overlap
     ethr =  1.14E-03,  avg # of iterations =  2.3

     total cpu time spent up to now is      281.0 secs

     total energy              =   -1421.41212670 Ry
     estimated scf accuracy    <       0.27529754 Ry

     iteration #  4     ecut=    20.00 Ry     beta= 0.50
     Davidson diagonalization with overlap
     ethr =  2.55E-04,  avg # of iterations =  3.6

     total cpu time spent up to now is      354.9 secs

     total energy              =   -1421.46338480 Ry
     estimated scf accuracy    <       0.06150302 Ry

     iteration #  5     ecut=    20.00 Ry     beta= 0.50
     Davidson diagonalization with overlap
     ethr =  5.69E-05,  avg # of iterations =  6.1

     total cpu time spent up to now is      448.8 secs

     total energy              =   -1421.44718306 Ry
     estimated scf accuracy    <       0.11073774 Ry

     iteration #  6     ecut=    20.00 Ry     beta= 0.50
     Davidson diagonalization with overlap
     ethr =  5.69E-05,  avg # of iterations =  2.0

     total cpu time spent up to now is      519.1 secs

     total energy              =   -1421.45172944 Ry
     estimated scf accuracy    <       0.05491295 Ry

     iteration #  7     ecut=    20.00 Ry     beta= 0.50
     Davidson diagonalization with overlap
     ethr =  5.08E-05,  avg # of iterations =  1.0

     negative rho (up, down):  2.461E-02 0.000E+00

     total cpu time spent up to now is      580.0 secs

     total energy              =   -1421.44367705 Ry
     estimated scf accuracy    <       0.05785941 Ry

     iteration #  8     ecut=    20.00 Ry     beta= 0.50
     Davidson diagonalization with overlap
     ethr =  5.08E-05,  avg # of iterations =  2.0

     negative rho (up, down):  4.331E-02 0.000E+00

     total cpu time spent up to now is      649.4 secs

     total energy              =   -1421.44479869 Ry
     estimated scf accuracy    <       0.01002214 Ry

     iteration #  9     ecut=    20.00 Ry     beta= 0.50
     Davidson diagonalization with overlap
     ethr =  9.28E-06,  avg # of iterations =  6.1

     negative rho (up, down):  1.264E-02 0.000E+00

     total cpu time spent up to now is      741.8 secs

     total energy              =   -1421.44943210 Ry
     estimated scf accuracy    <       0.01123537 Ry

     iteration # 10     ecut=    20.00 Ry     beta= 0.50
     Davidson diagonalization with overlap
     ethr =  9.28E-06,  avg # of iterations =  3.2

     negative rho (up, down):  5.404E-03 0.000E+00

     total cpu time spent up to now is      813.4 secs

     total energy              =   -1421.44776946 Ry
     estimated scf accuracy    <       0.03279484 Ry

     iteration # 11     ecut=    20.00 Ry     beta= 0.50
     Davidson diagonalization with overlap
     ethr =  9.28E-06,  avg # of iterations =  1.9

     negative rho (up, down):  6.003E-04 0.000E+00

     total cpu time spent up to now is      873.7 secs

     total energy              =   -1421.44569015 Ry
     estimated scf accuracy    <       0.01353104 Ry

     iteration # 12     ecut=    20.00 Ry     beta= 0.50
     Davidson diagonalization with overlap
     ethr =  9.28E-06,  avg # of iterations =  2.0

     negative rho (up, down):  3.749E-04 0.000E+00

     total cpu time spent up to now is      945.2 secs

     total energy              =   -1421.44672829 Ry
     estimated scf accuracy    <       0.00082105 Ry

     iteration # 13     ecut=    20.00 Ry     beta= 0.50
     Davidson diagonalization with overlap
     ethr =  7.60E-07,  avg # of iterations =  6.3

     negative rho (up, down):  2.784E-04 0.000E+00

     total cpu time spent up to now is     1047.5 secs

     total energy              =   -1421.44722774 Ry
     estimated scf accuracy    <       0.00064699 Ry

     iteration # 14     ecut=    20.00 Ry     beta= 0.50
     Davidson diagonalization with overlap
     ethr =  5.99E-07,  avg # of iterations =  1.7

     negative rho (up, down):  2.741E-04 0.000E+00

     total cpu time spent up to now is     1107.5 secs

     total energy              =   -1421.44713917 Ry
     estimated scf accuracy    <       0.00087032 Ry

     iteration # 15     ecut=    20.00 Ry     beta= 0.50
     Davidson diagonalization with overlap
     ethr =  5.99E-07,  avg # of iterations =  1.2

     negative rho (up, down):  1.678E-04 0.000E+00

     total cpu time spent up to now is     1164.8 secs

     total energy              =   -1421.44711488 Ry
     estimated scf accuracy    <       0.00027896 Ry

     iteration # 16     ecut=    20.00 Ry     beta= 0.50
     Davidson diagonalization with overlap
     ethr =  2.58E-07,  avg # of iterations =  2.5

     negative rho (up, down):  7.595E-05 0.000E+00

     total cpu time spent up to now is     1228.3 secs

     total energy              =   -1421.44713058 Ry
     estimated scf accuracy    <       0.00003406 Ry

     iteration # 17     ecut=    20.00 Ry     beta= 0.50
     Davidson diagonalization with overlap
     ethr =  3.15E-08,  avg # of iterations =  6.0

     negative rho (up, down):  9.259E-05 0.000E+00

     total cpu time spent up to now is     1333.4 secs

     total energy              =   -1421.44714504 Ry
     estimated scf accuracy    <       0.00000974 Ry

     iteration # 18     ecut=    20.00 Ry     beta= 0.50
     Davidson diagonalization with overlap
     ethr =  9.02E-09,  avg # of iterations =  3.9

     negative rho (up, down):  1.370E-04 0.000E+00

     total cpu time spent up to now is     1402.0 secs

     total energy              =   -1421.44714570 Ry
     estimated scf accuracy    <       0.00000093 Ry

     iteration # 19     ecut=    20.00 Ry     beta= 0.50
     Davidson diagonalization with overlap
     c_bands:  1 eigenvalues not converged
     ethr =  8.61E-10,  avg # of iterations =  8.4

     negative rho (up, down):  1.534E-04 0.000E+00

     total cpu time spent up to now is     1511.7 secs

     total energy              =   -1421.44714966 Ry
     estimated scf accuracy    <       0.00000142 Ry

     iteration # 20     ecut=    20.00 Ry     beta= 0.50
     Davidson diagonalization with overlap
     ethr =  8.61E-10,  avg # of iterations =  2.2

     negative rho (up, down):  1.319E-04 0.000E+00

     total cpu time spent up to now is     1575.2 secs

     total energy              =   -1421.44714977 Ry
     estimated scf accuracy    <       0.00000031 Ry

     iteration # 21     ecut=    20.00 Ry     beta= 0.50
     Davidson diagonalization with overlap
     ethr =  2.87E-10,  avg # of iterations =  4.1

     negative rho (up, down):  1.036E-04 0.000E+00

     total cpu time spent up to now is     1642.5 secs

     End of self-consistent calculation

          k = 0.0139 0.0139 0.0000 ( 17137 PWs)   bands (ev):

   -10.4830  -9.1585  -8.6486  -8.6486  -8.3176  -8.3176  -7.3383  -7.3383
    -7.0333  -7.0099  -7.0099  -6.8391  -6.5130  -6.5130  -6.1880  -5.5426
    -5.2328  -5.2328  -5.2192  -5.2192  -4.9082  -4.9082  -4.8970  -4.2599
    -3.4567  -3.1371  -3.1371  -2.9662  -2.9662  -2.8189  -2.4976  -2.4976
    -2.3085  -2.3085  -2.1577  -2.1577  -1.9386  -1.7008  -1.7008  -1.5176
    -1.5097  -1.5097  -1.2087  -1.0816  -1.0816  -0.7433  -0.4391  -0.4391
    -0.2984  -0.2819  -0.2818  -0.2399  -0.2088  -0.2088   0.0104   0.0457
     0.0820   0.0820   0.2411   0.2411   0.2493   0.3750   0.3750   0.9875
     0.9877

          k = 0.0139 0.0417 0.0000 ( 17107 PWs)   bands (ev):

   -10.4551  -9.1307  -8.9527  -8.6210  -8.2901  -7.9600  -7.6400  -7.3109
    -7.1388  -7.0058  -6.9826  -6.8118  -6.6552  -6.1609  -5.8399  -5.8371
    -5.5311  -5.5156  -5.2056  -4.8811  -4.8702  -4.5575  -4.5493  -4.2326
    -3.7506  -3.5746  -3.4300  -2.9404  -2.7923  -2.7739  -2.4756  -2.4711
    -2.3042  -2.2826  -2.1308  -1.9752  -1.9126  -1.8249  -1.7937  -1.6752
    -1.6683  -1.6638  -1.1804  -1.0563  -1.0141  -0.7343  -0.7074  -0.6005
    -0.5655  -0.4235  -0.3174  -0.2104  -0.1829  -0.1343  -0.1123   0.0527
     0.1078   0.2813   0.3944   0.4000   0.4435   0.5686   0.7396   1.0121
     1.1467

          k = 0.0139 0.0694 0.0000 ( 17085 PWs)   bands (ev):

   -10.3991  -9.2297  -9.0752  -8.5658  -8.2351  -7.9149  -7.5757  -7.4120
    -7.2561  -7.0842  -6.9509  -6.9279  -6.2743  -6.1109  -5.8030  -5.7858
    -5.7831  -5.4609  -5.1514  -4.8270  -4.4959  -4.1823  -4.1780  -4.1767
    -4.1596  -4.0186  -3.6971  -3.0406  -2.8889  -2.8854  -2.4920  -2.4224
    -2.4181  -2.2357  -2.2310  -2.1076  -2.0771  -1.8647  -1.8605  -1.6241
    -1.4984  -1.3432  -1.2405  -1.2340  -1.0059  -0.9938  -0.9919  -0.9642
    -0.7834  -0.7418  -0.6160  -0.1312  -0.0637   0.1079   0.1597   0.2149
     0.2824   0.4500   0.5918   0.7004   0.7345   0.8508   0.9265   1.0683
     1.1008

          k = 0.0139 0.0972 0.0000 ( 17096 PWs)   bands (ev):

   -10.3153  -9.4795  -8.9920  -8.4830  -8.1627  -8.1525  -7.6583  -7.3299
    -7.1739  -7.1653  -6.8686  -6.8460  -6.3553  -6.0481  -6.0295  -5.8682
    -5.3801  -5.0701  -5.0598  -4.7459  -4.7220  -4.2603  -4.0977  -4.0961
    -3.9382  -3.7806  -3.7805  -3.4420  -3.2825  -3.0133  -2.8119  -2.7270
    -2.3388  -2.1539  -2.0687  -2.0293  -1.9966  -1.7824  -1.7551  -1.7170
    -1.5587  -1.5478  -1.4864  -1.4750  -1.4266  -1.1995  -1.0082  -0.9308
    -0.9113  -0.8147  -0.2949  -0.2309  -0.0538   0.2070   0.2374   0.4183
     0.5246   0.5287   0.7083   0.7241   0.8882   0.9693   1.0058   1.0639
     1.1065

          k = 0.0139 0.1250 0.0000 ( 17067 PWs)   bands (ev):

   -10.2036  -9.7019  -8.8811  -8.3834  -8.3728  -8.0425  -7.8778  -7.5487
    -7.0645  -6.7589  -6.7368  -6.7288  -6.5731  -6.2664  -6.2467  -5.4506
    -5.2446  -4.9618  -4.9525  -4.6378  -4.6348  -4.4757  -4.1529  -3.9871
    -3.9785  -3.6926  -3.5069  -3.4986  -3.3786  -3.3510  -3.2057  -2.7098
    -2.2617  -2.2600  -2.2333  -2.0521  -1.9661  -1.9400  -1.8895  -1.7629
    -1.6785  -1.6114  -1.6098  -1.4465  -1.4104  -1.3014  -1.2129  -1.0024
    -0.8316  -0.5694  -0.4037  -0.2424   0.0491   0.0492   0.3408   0.4189
     0.5083   0.6233   0.6950   0.8033   0.8333   1.0542   1.0835   1.2303
     1.4347

          k = 0.0139 0.1528 0.0000 ( 17041 PWs)   bands (ev):

   -10.0641  -9.8968  -8.7427  -8.5768  -8.2351  -8.0701  -7.9051  -7.7405
    -6.9278  -6.7640  -6.6219  -6.6004  -6.4577  -6.4370  -6.2671  -5.7810
    -4.9686  -4.8265  -4.6644  -4.5029  -4.5015  -4.4866  -4.3412  -4.1872
    -4.0291  -3.8511  -3.7197  -3.6882  -3.2182  -2.9080  -2.9009  -2.7506
    -2.5831  -2.4459  -2.4325  -2.4278  -2.1019  -1.9448  -1.9263  -1.7779
    -1.7559  -1.5961  -1.5487  -1.3934  -1.3212  -1.1725  -1.1723  -0.8667
    -0.7137  -0.7091  -0.5654  -0.4138  -0.1506   0.1774   0.2861   0.3307
     0.4698   0.6243   0.7454   0.8898   1.1363   1.2549   1.3487   1.4877
     1.4968

          k = 0.0417 0.0417 0.0000 ( 17091 PWs)   bands (ev):

   -10.4271  -9.1029  -8.9250  -8.9250  -7.9325  -7.9325  -7.6125  -7.6125
    -7.4393  -6.9784  -6.6279  -6.6279  -6.4586  -6.4586  -6.1380  -5.5039
    -5.5039  -5.4878  -5.1654  -5.1654  -4.5305  -4.5305  -4.2053  -4.2031
    -4.0453  -3.5485  -3.5485  -3.0840  -3.0840  -2.7470  -2.7470  -2.2783
    -2.2783  -2.2035  -2.2035  -2.1340  -1.8865  -1.7982  -1.7982  -1.7747
    -1.6435  -1.6435  -1.3100  -0.9537  -0.9537  -0.8482  -0.5746  -0.5746
    -0.5555  -0.3846  -0.3773  -0.3773  -0.2930  -0.2930  -0.1852  -0.1852
     0.3710   0.4203   0.4203   0.5803   0.6098   0.8771   0.9285   1.0116
     1.0116

          k = 0.0417 0.0694 0.0000 ( 17091 PWs)   bands (ev):

   -10.3712  -9.2020  -9.0474  -8.8697  -7.8873  -7.8775  -7.7132  -7.5576
    -7.5483  -6.9234  -6.7301  -6.5734  -6.4097  -6.2471  -6.0795  -5.7757
    -5.4496  -5.4347  -5.1135  -4.7898  -4.4765  -4.3140  -4.1554  -4.1507
    -4.1332  -3.8326  -3.4963  -3.3501  -3.0136  -2.8592  -2.7514  -2.7122
    -2.6932  -2.4349  -2.2266  -2.0263  -1.8344  -1.7686  -1.7447  -1.5940
    -1.5729  -1.4933  -1.4717  -1.1794  -0.9678  -0.7978  -0.7825  -0.7573
    -0.7162  -0.6344  -0.5227  -0.3398  -0.2443  -0.1345  -0.0517   0.3059
     0.4281   0.4722   0.6051   0.6522   0.7263   0.8813   0.9024   0.9567
     0.9624

          k = 0.0417 0.0972 0.0000 ( 17092 PWs)   bands (ev):

   -10.2874  -9.4517  -8.9643  -8.7867  -8.1351  -7.9601  -7.7952  -7.4753
    -7.1379  -6.9750  -6.8411  -6.6548  -6.4916  -6.0208  -5.8411  -5.6776
    -5.6750  -5.3681  -4.7150  -4.6954  -4.5564  -4.3956  -4.3900  -4.0689
    -3.7537  -3.5904  -3.4391  -3.4181  -3.4156  -3.2868  -3.2554  -2.6539
    -2.6126  -2.4436  -2.3175  -2.1491  -2.0241  -1.8112  -1.7564  -1.6645
    -1.5202  -1.4600  -1.3942  -1.3814  -1.2006  -0.9822  -0.8852  -0.8764
    -0.8696  -0.4451  -0.2720  -0.1718  -0.0822  -0.0636  -0.0587   0.2938
     0.4805   0.4819   0.5499   0.6753   0.7817   0.9141   0.9916   1.1985
     1.3431

          k = 0.0417 0.1250 0.0000 ( 17084 PWs)   bands (ev):

   -10.1757  -9.6741  -8.8534  -8.6762  -8.3558  -8.1801  -7.6855  -7.3656
    -7.1932  -6.8731  -6.7314  -6.7017  -6.3828  -6.2391  -5.8941  -5.4237
    -5.2595  -5.2455  -5.2177  -4.7723  -4.2933  -4.2879  -3.9824  -3.9598
    -3.9519  -3.8044  -3.7890  -3.4714  -3.3243  -3.3142  -3.0418  -2.8915
    -2.8536  -2.5394  -2.5052  -2.0463  -2.0240  -1.9137  -1.8977  -1.6598
    -1.6524  -1.5910  -1.5578  -1.4233  -1.1868  -1.0802  -1.0197  -0.9693
    -0.5433  -0.5168  -0.3418  -0.0764   0.0418   0.1116   0.2669   0.3247
     0.3610   0.4401   0.4851   0.6535   0.7208   0.8354   1.1173   1.4687
     1.7236

          k = 0.0417 0.1528 0.0000 ( 17068 PWs)   bands (ev):

   -10.0362  -9.8690  -8.7150  -8.5491  -8.5382  -8.3728  -7.5486  -7.3844
    -7.2286  -7.0644  -6.5945  -6.4304  -6.2468  -6.2400  -6.0839  -5.7541
    -5.1240  -4.9615  -4.9417  -4.7920  -4.4598  -4.3163  -4.1533  -3.9922
    -3.8507  -3.8238  -3.6610  -3.5053  -3.3910  -3.1851  -3.0341  -3.0312
    -2.8744  -2.5770  -2.4014  -2.3712  -2.2107  -2.1236  -1.9185  -1.7664
    -1.5227  -1.4560  -1.4246  -1.3674  -1.3047  -1.2653  -1.1680  -0.9933
    -0.5406  -0.2136  -0.1246  -0.0971  -0.0615   0.0403   0.1666   0.1757
     0.3121   0.3147   0.6859   0.7829   0.9376   1.1294   1.1557   1.2479
     1.6763

          k = 0.0694 0.0694 0.0000 ( 17086 PWs)   bands (ev):

   -10.3153  -9.1465  -9.1465  -8.9920  -7.9876  -7.8323  -7.8323  -7.4936
    -7.4936  -6.8685  -6.6821  -6.3499  -6.3499  -6.1928  -6.1928  -5.7212
    -5.7212  -5.0580  -5.0580  -4.7417  -4.5833  -4.1016  -4.1016  -4.0961
    -4.0803  -4.0803  -3.4648  -2.9982  -2.9982  -2.9765  -2.9764  -2.9596
    -2.9596  -2.8069  -2.8069  -1.9804  -1.8360  -1.7824  -1.7351  -1.7351
    -1.4183  -1.4183  -1.4064  -0.9200  -0.9200  -0.7613  -0.7052  -0.7052
    -0.6649  -0.6649  -0.5914  -0.4359  -0.3093  -0.3093   0.3524   0.3524
     0.3751   0.3751   0.3826   0.7159   0.7782   0.7782   0.7832   1.0232
     1.2561

          k = 0.0694 0.0972 0.0000 ( 17078 PWs)   bands (ev):

   -10.2315  -9.3961  -9.0634  -8.9088  -8.2351  -8.0800  -7.7498  -7.4115
    -7.0834  -6.9277  -6.7863  -6.5940  -6.1113  -5.9662  -5.9442  -5.7870
    -5.6396  -5.3000  -4.8262  -4.6568  -4.6422  -4.3466  -4.0211  -4.0143
    -4.0011  -3.6999  -3.5413  -3.3631  -3.2268  -3.2142  -3.2013  -3.0748
    -2.8787  -2.7287  -2.5808  -2.2751  -2.2070  -2.0749  -1.9589  -1.7043
    -1.4073  -1.3383  -1.0252  -0.9757  -0.9301  -0.8493  -0.8332  -0.6269
    -0.5884  -0.5444  -0.5232  -0.3436  -0.3160  -0.2267   0.1521   0.1599
     0.2379   0.4210   0.7666   0.8561   0.8867   0.9659   1.0136   1.0354
     1.3901

          k = 0.0694 0.1250 0.0000 ( 17057 PWs)   bands (ev):

   -10.1198  -9.6184  -8.9527  -8.7980  -8.4555  -8.3006  -7.6399  -7.3022
    -7.1464  -6.8114  -6.6766  -6.6474  -6.1845  -6.0027  -5.5308  -5.5157
    -5.5131  -5.3699  -5.1640  -5.0426  -4.2472  -4.0491  -3.9299  -3.9138
    -3.9054  -3.8986  -3.8958  -3.4349  -3.4243  -3.4172  -3.2710  -2.7958
    -2.7710  -2.6863  -2.6246  -2.5779  -2.2882  -2.1612  -2.1597  -1.8610
    -1.6004  -1.3591  -1.2317  -1.1347  -0.7704  -0.7576  -0.7548  -0.6176
    -0.5227  -0.4909  -0.4867  -0.4102  -0.2393  -0.0547  -0.0358   0.4817
     0.5098   0.5879   0.6482   0.7724   0.8353   0.9328   0.9600   1.1993
     1.4249

          k = 0.0694 0.1528 0.0000 ( 17042 PWs)   bands (ev):

    -9.9804  -9.8133  -8.8144  -8.6596  -8.6487  -8.4938  -7.5026  -7.3381
    -7.1656  -7.0020  -6.5397  -6.3756  -6.1859  -5.8672  -5.7048  -5.7002
    -5.3950  -5.2322  -5.0577  -4.8879  -4.5794  -4.4062  -3.7800  -3.7695
    -3.7683  -3.7645  -3.6201  -3.6074  -3.6066  -3.4951  -3.2943  -3.0492
    -2.8212  -2.6366  -2.4950  -2.4755  -2.3485  -2.3403  -2.2288  -1.7908
    -1.7157  -1.4706  -1.3152  -1.2502  -1.0988  -0.9397  -0.6475  -0.5263
    -0.3925  -0.3603  -0.2364  -0.2097  -0.1985  -0.0725   0.1368   0.2357
     0.3639   0.5741   0.6153   0.7297   1.0017   1.0895   1.1925   1.2445
     1.4534

          k = 0.0972 0.0972 0.0000 ( 17068 PWs)   bands (ev):

   -10.1477  -9.3129  -9.3129  -8.8257  -8.4831  -7.9974  -7.9974  -7.1738
    -7.0016  -7.0016  -6.7040  -6.1871  -6.1871  -5.8845  -5.8845  -5.7058
    -5.7058  -5.0696  -4.8977  -4.8977  -4.5624  -4.5624  -3.9564  -3.9326
    -3.7736  -3.7736  -3.6193  -3.6193  -3.2843  -3.2843  -3.1202  -3.1202
    -2.8188  -2.8188  -2.6898  -2.5047  -2.5047  -2.3143  -2.1347  -1.6262
    -1.3283  -1.3283  -0.9155  -0.8519  -0.8519  -0.7553  -0.7553  -0.7530
    -0.6436  -0.5464  -0.5464  -0.1606  -0.1606  -0.0753   0.0130   0.0130
     0.0290   0.5314   1.0437   1.0437   1.0793   1.0861   1.0989   1.0989
     1.2475

          k = 0.0972 0.1250 0.0000 ( 17055 PWs)   bands (ev):

   -10.0362  -9.5350  -9.2020  -8.7150  -8.7039  -8.2178  -7.8872  -7.3929
    -6.8926  -6.5945  -6.5659  -6.4037  -6.1026  -5.7755  -5.7549  -5.5976
    -5.2892  -5.2864  -5.1125  -5.0835  -4.4864  -4.4563  -4.2853  -3.9822
    -3.8238  -3.8188  -3.5476  -3.5120  -3.3359  -3.1912  -3.1794  -3.0312
    -3.0291  -3.0122  -2.7107  -2.5283  -2.3964  -2.3509  -2.2738  -1.7822
    -1.5223  -1.2230  -1.1086  -1.0566  -1.0011  -0.7530  -0.7478  -0.6582
    -0.6517  -0.4127  -0.2811  -0.2507  -0.1895  -0.0764   0.1478   0.3607
     0.4434   0.5407   0.7571   0.8497   0.8915   1.1473   1.1790   1.3749
     1.6136

          k = 0.0972 0.1528 0.0000 ( 17044 PWs)   bands (ev):

    -9.8968  -9.7297  -9.0634  -8.8974  -8.5767  -8.4109  -7.7497  -7.5849
    -6.7566  -6.5936  -6.4576  -6.2936  -6.1047  -5.6394  -5.6196  -5.4764
    -5.4626  -5.3009  -5.2980  -4.8178  -4.8073  -4.3260  -4.3240  -4.1658
    -4.0064  -3.6879  -3.5303  -3.5252  -3.3780  -3.2177  -3.1268  -3.0487
    -2.8923  -2.8775  -2.7417  -2.7160  -2.7096  -2.2693  -1.9508  -1.8710
    -1.4832  -1.4640  -1.3925  -1.2371  -1.0918  -0.9350  -0.6179  -0.5225
    -0.4622  -0.3682  -0.3497   0.0055   0.0183   0.0476   0.1078   0.1592
     0.4414   0.5488   0.7754   0.9787   1.2068   1.2408   1.2678   1.2768
     1.3482

          k = 0.1250 0.1250 0.0000 ( 17070 PWs)   bands (ev):

    -9.9246  -9.4239  -9.4239  -8.9250  -8.6043  -8.1075  -8.1075  -7.6124
    -6.4850  -6.4573  -6.4573  -5.9934  -5.9934  -5.9704  -5.9704  -5.5035
    -5.1817  -5.1817  -4.9763  -4.9763  -4.6998  -4.6998  -4.4967  -4.4967
    -3.7150  -3.7126  -3.7126  -3.2380  -3.2380  -3.2277  -3.2277  -3.1528
    -3.0848  -3.0848  -2.7426  -2.6076  -2.6076  -2.2376  -1.9029  -1.6772
    -1.6772  -1.4182  -1.2077  -1.2077  -1.0184  -0.9526  -0.9526  -0.8623
    -0.4864  -0.3085  -0.3085  -0.0145   0.1335   0.1565   0.1565   0.5218
     0.5453   0.6104   0.6104   0.9525   0.9525   0.9766   1.3336   1.4119
     1.4119

          k = 0.1250 0.1528 0.0000 ( 17058 PWs)   bands (ev):

    -9.7853  -9.6184  -9.2851  -9.1188  -8.4662  -8.3005  -7.9698  -7.8047
    -6.3483  -6.3218  -6.1844  -6.1594  -5.9967  -5.8572  -5.6938  -5.5123
    -5.5121  -5.0476  -5.0306  -4.8869  -4.8426  -4.6999  -4.6826  -4.2193
    -4.2189  -3.7413  -3.5802  -3.5793  -3.4218  -3.4168  -3.0926  -2.9520
    -2.9308  -2.7928  -2.7610  -2.6357  -2.4161  -2.1638  -2.1607  -1.6917
    -1.5464  -1.5209  -1.3897  -1.2885  -1.1876  -1.1331  -0.8227  -0.7443
    -0.6672  -0.4159  -0.1787  -0.0235   0.1092   0.4859   0.5445   0.5721
     0.6152   0.6749   0.6898   0.8099   0.9218   1.0047   1.0807   1.2340
     1.2850

          k = 0.1528 0.1528 0.0000 ( 17034 PWs)   bands (ev):

    -9.6462  -9.4794  -9.4794  -9.3129  -8.3281  -8.1626  -8.1626  -7.9973
    -6.2116  -6.0479  -6.0479  -5.8844  -5.8618  -5.8618  -5.7003  -5.7003
    -5.3780  -5.3780  -5.2174  -5.2174  -4.5659  -4.5659  -4.4055  -4.4055
    -4.0861  -4.0861  -3.9266  -3.9266  -3.4437  -3.2815  -3.2815  -3.1194
    -2.5034  -2.5034  -2.4418  -2.3450  -2.3450  -2.2890  -2.0322  -2.0322
    -1.8748  -1.8748  -1.2201  -1.1587  -1.0698  -1.0033  -1.0033  -0.9284
    -0.8479  -0.7850   0.2385   0.2385   0.3929   0.3929   0.4291   0.5700
     0.6731   0.6731   0.7932   0.8266   0.8266   0.9253   1.1136   1.2808
     1.2808

     the Fermi energy is     0.0773 ev

!    total energy              =   -1421.44714974 Ry

     total all-electron energy =    -17482.587287 Ry
     estimated scf accuracy    <       0.00000006 Ry
     smearing contrib. (-TS)   =      -0.00112436 Ry
     internal energy E=F+TS    =   -1421.44602538 Ry

     The total energy is F=E-TS. E is the sum of the following terms:
     one-electron contribution =   -1539.68261642 Ry
     hartree contribution      =     796.02275294 Ry
     xc contribution           =     -91.10104199 Ry
     ewald contribution        =     661.72892460 Ry
     one-center paw contrib.   =   -1248.41404451 Ry

     convergence has been achieved in  21 iterations

     negative rho (up, down):  1.036E-04 0.000E+00

     Forces acting on atoms (cartesian axes, Ry/au):

     atom    1 type  1   force =     0.00000000    0.00000000   -0.00513154
     atom    2 type  1   force =     0.00000000    0.00000005   -0.00513185
     atom    3 type  1   force =     0.00000000   -0.00000005   -0.00513185
     atom    4 type  1   force =     0.00000005    0.00000000   -0.00513185
     atom    5 type  1   force =    -0.00000007   -0.00000007   -0.00513173
     atom    6 type  1   force =    -0.00000007    0.00000007   -0.00513173
     atom    7 type  1   force =    -0.00000005    0.00000000   -0.00513185
     atom    8 type  1   force =     0.00000007   -0.00000007   -0.00513173
     atom    9 type  1   force =     0.00000007    0.00000007   -0.00513173
     atom   10 type  1   force =    -0.00000022   -0.00000022    0.00518166
     atom   11 type  1   force =    -0.00000009    0.00000000    0.00518159
     atom   12 type  1   force =    -0.00000022    0.00000022    0.00518166
     atom   13 type  1   force =     0.00000000   -0.00000009    0.00518159
     atom   14 type  1   force =     0.00000000    0.00000000    0.00518121
     atom   15 type  1   force =     0.00000000    0.00000009    0.00518159
     atom   16 type  1   force =     0.00000022   -0.00000022    0.00518166
     atom   17 type  1   force =     0.00000009    0.00000000    0.00518159
     atom   18 type  1   force =     0.00000022    0.00000022    0.00518166
     atom   19 type  1   force =     0.00000000    0.00000000    0.00001342
     atom   20 type  1   force =     0.00000000    0.00000001    0.00001474
     atom   21 type  1   force =     0.00000000   -0.00000001    0.00001474
     atom   22 type  1   force =     0.00000001    0.00000000    0.00001474
     atom   23 type  1   force =    -0.00000005   -0.00000005    0.00001543
     atom   24 type  1   force =    -0.00000005    0.00000005    0.00001543
     atom   25 type  1   force =    -0.00000001    0.00000000    0.00001474
     atom   26 type  1   force =     0.00000005   -0.00000005    0.00001543
     atom   27 type  1   force =     0.00000005    0.00000005    0.00001543
     atom   28 type  1   force =     0.00000035    0.00000035   -0.00006456
     atom   29 type  1   force =     0.00000007    0.00000000   -0.00006466
     atom   30 type  1   force =     0.00000035   -0.00000035   -0.00006456
     atom   31 type  1   force =     0.00000000    0.00000007   -0.00006466
     atom   32 type  1   force =     0.00000000    0.00000000   -0.00006556
     atom   33 type  1   force =     0.00000000   -0.00000007   -0.00006466
     atom   34 type  1   force =    -0.00000035    0.00000035   -0.00006456
     atom   35 type  1   force =    -0.00000007    0.00000000   -0.00006466
     atom   36 type  1   force =    -0.00000035   -0.00000035   -0.00006456

     Total force =     0.000199     Total SCF correction =     0.000243
     SCF correction compared to forces is large: reduce conv_thr to get better values

     BFGS Geometry Optimization
     Energy error            =      0.0E+00
     Gradient error          =      6.6E-05

     bfgs converged in   1 scf cycles and   0 bfgs steps
     (criteria: energy <  1.0E-04 Ry, force <  1.0E-03 Ry/Bohr)

     End of BFGS Geometry Optimization

     Final energy   =   -1421.4471497425 Ry
Begin final coordinates

ATOMIC_POSITIONS (alat)
Al            0.0000000000        0.0000000000        0.0000000000    0   0   0
Al            0.0000000000        0.9999999976        0.0000000000    0   0   0
Al            0.0000000000        1.9999999953        0.0000000000    0   0   0
Al            0.9999999976        0.0000000000        0.0000000000    0   0   0
Al            0.9999999976        0.9999999976        0.0000000000    0   0   0
Al            0.9999999976        1.9999999953        0.0000000000    0   0   0
Al            1.9999999953        0.0000000000        0.0000000000    0   0   0
Al            1.9999999953        0.9999999976        0.0000000000    0   0   0
Al            1.9999999953        1.9999999953        0.0000000000    0   0   0
Al            0.4999999988        0.4999999988        0.7071067673    0   0   0
Al            0.4999999988        1.4999999965        0.7071067673    0   0   0
Al            0.4999999988        2.4999999941        0.7071067673    0   0   0
Al            1.4999999965        0.4999999988        0.7071067673    0   0   0
Al            1.4999999965        1.4999999965        0.7071067673    0   0   0
Al            1.4999999965        2.4999999941        0.7071067673    0   0   0
Al            2.4999999941        0.4999999988        0.7071067673    0   0   0
Al            2.4999999941        1.4999999965        0.7071067673    0   0   0
Al            2.4999999941        2.4999999941        0.7071067673    0   0   0
Al            0.0000000000        0.0000000000        1.4307627046    0   0   1
Al            0.0000000000        0.9999999976        1.4307591089    0   0   1
Al            0.0000000000        1.9999999953        1.4307591089    0   0   1
Al            0.9999999976        0.0000000000        1.4307591089    0   0   1
Al            0.9999999976        0.9999999976        1.4307581502    0   0   1
Al            0.9999999976        1.9999999953        1.4307581502    0   0   1
Al            1.9999999953        0.0000000000        1.4307591089    0   0   1
Al            1.9999999953        0.9999999976        1.4307581502    0   0   1
Al            1.9999999953        1.9999999953        1.4307581502    0   0   1
Al            0.4999999988        0.4999999988        2.1566262357    0   0   1
Al            0.4999999988        1.4999999965        2.1566250477    0   0   1
Al            0.4999999988        2.4999999941        2.1566262357    0   0   1
Al            1.4999999965        0.4999999988        2.1566250477    0   0   1
Al            1.4999999965        1.4999999965        2.1566273052    0   0   1
Al            1.4999999965        2.4999999941        2.1566250477    0   0   1
Al            2.4999999941        0.4999999988        2.1566262357    0   0   1
Al            2.4999999941        1.4999999965        2.1566250477    0   0   1
Al            2.4999999941        2.4999999941        2.1566262357    0   0   1
End final coordinates



     Writing output data file ./tmp/Al.save/

     init_run     :     35.75s CPU     48.78s WALL (       1 calls)
     electrons    :   1190.08s CPU   1593.58s WALL (       1 calls)
     forces       :     13.24s CPU     15.85s WALL (       1 calls)

     Called by init_run:
     wfcinit      :     32.59s CPU     43.81s WALL (       1 calls)
     potinit      :      1.74s CPU      2.15s WALL (       1 calls)
     hinit0       :      0.34s CPU      0.40s WALL (       1 calls)

     Called by electrons:
     c_bands      :    945.32s CPU   1237.41s WALL (      21 calls)
     sum_band     :    160.20s CPU    241.27s WALL (      21 calls)
     v_of_rho     :      5.54s CPU      6.68s WALL (      22 calls)
     newd         :     19.46s CPU     34.00s WALL (      22 calls)
     PAW_pot      :     30.06s CPU     34.95s WALL (      22 calls)
     mix_rho      :     31.26s CPU     42.15s WALL (      21 calls)

     Called by c_bands:
     init_us_2    :     13.35s CPU     15.06s WALL (     924 calls)
     cegterg      :    897.92s CPU   1182.82s WALL (     441 calls)

     Called by *egterg:
     cdiaghg      :     10.60s CPU     12.61s WALL (    1991 calls)
     h_psi        :    657.70s CPU    900.04s WALL (    2012 calls)
     s_psi        :    118.54s CPU    140.64s WALL (    2012 calls)
     g_psi        :      0.75s CPU      1.10s WALL (    1550 calls)

     Called by h_psi:
     h_psi:calbec :    141.51s CPU    168.62s WALL (    2012 calls)
     vloc_psi     :    392.08s CPU    582.79s WALL (    2012 calls)
     add_vuspsi   :    122.88s CPU    147.15s WALL (    2012 calls)

     General routines
     calbec       :    195.36s CPU    231.17s WALL (    2537 calls)
     fft          :      5.39s CPU      6.73s WALL (     295 calls)
     ffts         :     19.66s CPU     26.01s WALL (    4939 calls)
     fftw         :    447.45s CPU    654.39s WALL (  178325 calls)
     interpolate  :      0.51s CPU      0.75s WALL (      22 calls)

     Parallel routines
     fft_scatt_xy :     51.90s CPU     68.33s WALL (  183559 calls)
     fft_scatt_yz :    171.79s CPU    266.53s WALL (  183559 calls)

     PWSCF        :  20m39.41s CPU  27m39.26s WALL


   This run was terminated on:  15:56:46  14May2025            

=------------------------------------------------------------------------------=
   JOB DONE.
=------------------------------------------------------------------------------=
