
     Program PWSCF v.6.7MaX starts on 20May2025 at 20:10: 4 

     This program is part of the open-source Quantum ESPRESSO suite
     for quantum simulation of materials; please cite
         "P. Giannozzi et al., J. Phys.:Condens. Matter 21 395502 (2009);
         "P. Giannozzi et al., J. Phys.:Condens. Matter 29 465901 (2017);
          URL http://www.quantum-espresso.org", 
     in publications or presentations arising from this work. More details at
     http://www.quantum-espresso.org/quote

     Parallel version (MPI & OpenMP), running on       6 processor cores
     Number of MPI processes:                 6
     Threads/MPI process:                     1

     MPI processes distributed on     1 nodes
     K-points division:     npool     =       6
     Waiting for input...
     Reading input from standard input

     Current dimensions of program PWSCF are:
     Max number of different atomic species (ntypx) = 10
     Max number of k-points (npk) =  40000
     Max angular momentum in pseudopotentials (lmaxx) =  3
     file Al.pbe-n-kjpaw_psl.1.0.0.UPF: wavefunction(s)  3S 3P renormalized
     file O.pbe-n-kjpaw_psl.0.1.UPF: wavefunction(s)  2P renormalized

     Subspace diagonalization in iterative solution of the eigenvalue problem:
     a serial algorithm will be used

     Message from routine setup:
     using ibrav=0 with symmetry is DISCOURAGED, use correct ibrav instead

     G-vector sticks info
     --------------------
     sticks:   dense  smooth     PW     G-vecs:    dense   smooth      PW
     Sum        6665    3341    885              1092149   386353   53631



     bravais-lattice index     =            0
     lattice parameter (alat)  =       5.3944  a.u.
     unit-cell volume          =   11302.2493 (a.u.)^3
     number of atoms/cell      =           37
     number of atomic types    =            2
     number of electrons       =       114.00
     number of Kohn-Sham states=           68
     kinetic-energy cutoff     =      40.0000  Ry
     charge density cutoff     =     320.0000  Ry
     scf convergence threshold =      1.0E-07
     mixing beta               =       0.5000
     number of iterations used =            8  local-TF  mixing
     Exchange-correlation= SLA  PW   PBX  PBC
                           (   1   4   3   4   0   0   0)

     celldm(1)=   5.394412  celldm(2)=   0.000000  celldm(3)=   0.000000
     celldm(4)=   0.000000  celldm(5)=   0.000000  celldm(6)=   0.000000

     crystal axes: (cart. coord. in units of alat)
               a(1) = (   3.000000   0.000000   0.000000 )  
               a(2) = (   0.000000   3.000000   0.000000 )  
               a(3) = (   0.000000   0.000000   8.000000 )  

     reciprocal axes: (cart. coord. in units 2 pi/alat)
               b(1) = (  0.333333  0.000000  0.000000 )  
               b(2) = (  0.000000  0.333333  0.000000 )  
               b(3) = (  0.000000  0.000000  0.125000 )  


     PseudoPot. # 1 for Al read from file:
     ../../Pseudo/Al.pbe-n-kjpaw_psl.1.0.0.UPF
     MD5 check sum: dd5adf945272da8132fc805c9e56c2d6
     Pseudo is Projector augmented-wave + core cor, Zval =  3.0
     Generated using "atomic" code by A. Dal Corso  v.5.1
     Shape of augmentation charge: PSQ
     Using radial grid of 1135 points,  6 beta functions with: 
                l(1) =   0
                l(2) =   0
                l(3) =   1
                l(4) =   1
                l(5) =   2
                l(6) =   2
     Q(r) pseudized with 0 coefficients 


     PseudoPot. # 2 for O  read from file:
     ../../Pseudo/O.pbe-n-kjpaw_psl.0.1.UPF
     MD5 check sum: 0234752ac141de4415c5fc33072bef88
     Pseudo is Projector augmented-wave + core cor, Zval =  6.0
     Generated using "atomic" code by A. Dal Corso  v.5.0.99 svn rev. 10869
     Shape of augmentation charge: BESSEL
     Using radial grid of 1095 points,  4 beta functions with: 
                l(1) =   0
                l(2) =   0
                l(3) =   1
                l(4) =   1
     Q(r) pseudized with 0 coefficients 


     atomic species   valence    mass     pseudopotential
        Al             3.00     1.00000     Al( 1.00)
        O              6.00     1.00000     O ( 1.00)

      8 Sym. Ops. (no inversion) found



   Cartesian axes

     site n.     atom                  positions (alat units)
         1           Al  tau(   1) = (   0.0000000   0.0000000   0.0000000  )
         2           Al  tau(   2) = (   0.0000000   1.0000000   0.0000000  )
         3           Al  tau(   3) = (   0.0000000   2.0000000   0.0000000  )
         4           Al  tau(   4) = (   1.0000000   0.0000000   0.0000000  )
         5           Al  tau(   5) = (   1.0000000   1.0000000   0.0000000  )
         6           Al  tau(   6) = (   1.0000000   2.0000000   0.0000000  )
         7           Al  tau(   7) = (   2.0000000   0.0000000   0.0000000  )
         8           Al  tau(   8) = (   2.0000000   1.0000000   0.0000000  )
         9           Al  tau(   9) = (   2.0000000   2.0000000   0.0000000  )
        10           Al  tau(  10) = (   0.5000000   0.5000000   0.7071068  )
        11           Al  tau(  11) = (   0.5000000   1.5000000   0.7071068  )
        12           Al  tau(  12) = (   0.5000000   2.5000000   0.7071068  )
        13           Al  tau(  13) = (   1.5000000   0.5000000   0.7071068  )
        14           Al  tau(  14) = (   1.5000000   1.5000000   0.7071068  )
        15           Al  tau(  15) = (   1.5000000   2.5000000   0.7071068  )
        16           Al  tau(  16) = (   2.5000000   0.5000000   0.7071068  )
        17           Al  tau(  17) = (   2.5000000   1.5000000   0.7071068  )
        18           Al  tau(  18) = (   2.5000000   2.5000000   0.7071068  )
        19           Al  tau(  19) = (   0.0000000   0.0000000   1.4291457  )
        20           Al  tau(  20) = (   0.0000000   1.0007152   1.4309395  )
        21           Al  tau(  21) = (   0.0000000   1.9992848   1.4309395  )
        22           Al  tau(  22) = (   1.0007152   0.0000000   1.4309395  )
        23           Al  tau(  23) = (   0.9916776   0.9916776   1.4249834  )
        24           Al  tau(  24) = (   0.9916776   2.0083224   1.4249834  )
        25           Al  tau(  25) = (   1.9992848   0.0000000   1.4309395  )
        26           Al  tau(  26) = (   2.0083224   0.9916776   1.4249834  )
        27           Al  tau(  27) = (   2.0083224   2.0083224   1.4249834  )
        28           Al  tau(  28) = (   0.5012291   0.5012291   2.1565915  )
        29           Al  tau(  29) = (   0.4971216   1.5000000   2.1725093  )
        30           Al  tau(  30) = (   0.5012291   2.4987709   2.1565915  )
        31           Al  tau(  31) = (   1.5000000   0.4971216   2.1725093  )
        32           Al  tau(  32) = (   1.5000000   1.5000000   2.0556244  )
        33           Al  tau(  33) = (   1.5000000   2.5028784   2.1725093  )
        34           Al  tau(  34) = (   2.4987709   0.5012291   2.1565915  )
        35           Al  tau(  35) = (   2.5028784   1.5000000   2.1725093  )
        36           Al  tau(  36) = (   2.4987709   2.4987709   2.1565915  )
        37           O   tau(  37) = (   1.5000000   1.5000000   2.6435558  )

     number of k points=     6  Marzari-Vanderbilt smearing, width (Ry)=  0.0500
                       cart. coord. in units 2pi/alat
        k(    1) = (   0.0277778   0.0277778   0.0000000), wk =   0.2222222
        k(    2) = (   0.0277778   0.0833333   0.0000000), wk =   0.4444444
        k(    3) = (   0.0277778   0.1388889   0.0000000), wk =   0.4444444
        k(    4) = (   0.0833333   0.0833333   0.0000000), wk =   0.2222222
        k(    5) = (   0.0833333   0.1388889   0.0000000), wk =   0.4444444
        k(    6) = (   0.1388889   0.1388889   0.0000000), wk =   0.2222222

     Dense  grid:  1092149 G-vectors     FFT dimensions: (  96,  96, 250)

     Smooth grid:   386353 G-vectors     FFT dimensions: (  72,  72, 180)

     Estimated max dynamical RAM per process >       1.76 GB

     Estimated total dynamical RAM >      10.59 GB

     Initial potential from superposition of free atoms

     starting charge  113.91755, renormalised to  114.00000

     negative rho (up, down):  5.527E-04 0.000E+00
     Starting wfcs are  148 randomized atomic wfcs
     Checking if some PAW data can be deallocated... 

     total cpu time spent up to now is       20.2 secs

     Self-consistent Calculation

     iteration #  1     ecut=    40.00 Ry     beta= 0.50
     Davidson diagonalization with overlap
     ethr =  1.00E-02,  avg # of iterations =  3.7

     negative rho (up, down):  5.837E-08 0.000E+00

     total cpu time spent up to now is       72.2 secs

     total energy              =   -1463.01387602 Ry
     estimated scf accuracy    <       2.48619239 Ry

     iteration #  2     ecut=    40.00 Ry     beta= 0.50
     Davidson diagonalization with overlap
     ethr =  2.18E-03,  avg # of iterations =  2.5

     total cpu time spent up to now is      107.5 secs

     total energy              =   -1463.00884932 Ry
     estimated scf accuracy    <       1.19831840 Ry

     iteration #  3     ecut=    40.00 Ry     beta= 0.50
     Davidson diagonalization with overlap
     ethr =  1.05E-03,  avg # of iterations =  2.0

     total cpu time spent up to now is      139.5 secs

     total energy              =   -1463.04003931 Ry
     estimated scf accuracy    <       0.40388250 Ry

     iteration #  4     ecut=    40.00 Ry     beta= 0.50
     Davidson diagonalization with overlap
     ethr =  3.54E-04,  avg # of iterations =  3.8

     total cpu time spent up to now is      173.4 secs

     total energy              =   -1463.06440117 Ry
     estimated scf accuracy    <       0.29805176 Ry

     iteration #  5     ecut=    40.00 Ry     beta= 0.50
     Davidson diagonalization with overlap
     ethr =  2.61E-04,  avg # of iterations =  2.5

     total cpu time spent up to now is      204.0 secs

     total energy              =   -1463.08574200 Ry
     estimated scf accuracy    <       0.06402436 Ry

     iteration #  6     ecut=    40.00 Ry     beta= 0.50
     Davidson diagonalization with overlap
     ethr =  5.62E-05,  avg # of iterations =  9.7

     total cpu time spent up to now is      256.7 secs

     total energy              =   -1463.08350342 Ry
     estimated scf accuracy    <       0.11792497 Ry

     iteration #  7     ecut=    40.00 Ry     beta= 0.50
     Davidson diagonalization with overlap
     ethr =  5.62E-05,  avg # of iterations =  3.0

     total cpu time spent up to now is      293.3 secs

     total energy              =   -1463.09284630 Ry
     estimated scf accuracy    <       0.04977638 Ry

     iteration #  8     ecut=    40.00 Ry     beta= 0.50
     Davidson diagonalization with overlap
     ethr =  4.37E-05,  avg # of iterations =  1.2

     total cpu time spent up to now is      318.2 secs

     total energy              =   -1463.09431947 Ry
     estimated scf accuracy    <       0.01728626 Ry

     iteration #  9     ecut=    40.00 Ry     beta= 0.50
     Davidson diagonalization with overlap
     ethr =  1.52E-05,  avg # of iterations =  2.0

     negative rho (up, down):  3.628E-02 0.000E+00

     total cpu time spent up to now is      368.8 secs

     total energy              =   -1463.09298735 Ry
     estimated scf accuracy    <       0.01051848 Ry

     iteration # 10     ecut=    40.00 Ry     beta= 0.50
     Davidson diagonalization with overlap
     ethr =  9.23E-06,  avg # of iterations = 10.2

     negative rho (up, down):  2.385E-02 0.000E+00

     total cpu time spent up to now is      444.1 secs

     total energy              =   -1463.09532054 Ry
     estimated scf accuracy    <       0.02005525 Ry

     iteration # 11     ecut=    40.00 Ry     beta= 0.50
     Davidson diagonalization with overlap
     ethr =  9.23E-06,  avg # of iterations =  2.0

     negative rho (up, down):  1.391E-03 0.000E+00

     total cpu time spent up to now is      492.8 secs

     total energy              =   -1463.08960345 Ry
     estimated scf accuracy    <       0.01653519 Ry

     iteration # 12     ecut=    40.00 Ry     beta= 0.50
     Davidson diagonalization with overlap
     ethr =  9.23E-06,  avg # of iterations =  5.5

     negative rho (up, down):  4.905E-03 0.000E+00

     total cpu time spent up to now is      554.5 secs

     total energy              =   -1463.09466778 Ry
     estimated scf accuracy    <       0.01595649 Ry

     iteration # 13     ecut=    40.00 Ry     beta= 0.50
     Davidson diagonalization with overlap
     ethr =  9.23E-06,  avg # of iterations =  1.0

     negative rho (up, down):  3.273E-03 0.000E+00

     total cpu time spent up to now is      638.2 secs

     total energy              =   -1463.09305413 Ry
     estimated scf accuracy    <       0.00611028 Ry

     iteration # 14     ecut=    40.00 Ry     beta= 0.50
     Davidson diagonalization with overlap
     ethr =  5.36E-06,  avg # of iterations =  3.8

     negative rho (up, down):  2.023E-03 0.000E+00

     total cpu time spent up to now is      703.9 secs

     total energy              =   -1463.09465474 Ry
     estimated scf accuracy    <       0.00261329 Ry

     iteration # 15     ecut=    40.00 Ry     beta= 0.50
     Davidson diagonalization with overlap
     ethr =  2.29E-06,  avg # of iterations =  1.3

     negative rho (up, down):  1.191E-03 0.000E+00

     total cpu time spent up to now is      761.6 secs

     total energy              =   -1463.09466322 Ry
     estimated scf accuracy    <       0.00076858 Ry

     iteration # 16     ecut=    40.00 Ry     beta= 0.50
     Davidson diagonalization with overlap
     ethr =  6.74E-07,  avg # of iterations =  3.0

     negative rho (up, down):  5.752E-04 0.000E+00

     total cpu time spent up to now is      820.3 secs

     total energy              =   -1463.09465884 Ry
     estimated scf accuracy    <       0.00015222 Ry

     iteration # 17     ecut=    40.00 Ry     beta= 0.50
     Davidson diagonalization with overlap
     ethr =  1.34E-07,  avg # of iterations =  7.7

     negative rho (up, down):  6.835E-04 0.000E+00

     total cpu time spent up to now is      890.7 secs

     total energy              =   -1463.09473090 Ry
     estimated scf accuracy    <       0.00029181 Ry

     iteration # 18     ecut=    40.00 Ry     beta= 0.50
     Davidson diagonalization with overlap
     ethr =  1.34E-07,  avg # of iterations =  1.5

     negative rho (up, down):  6.080E-04 0.000E+00

     total cpu time spent up to now is      935.7 secs

     total energy              =   -1463.09472480 Ry
     estimated scf accuracy    <       0.00008361 Ry

     iteration # 19     ecut=    40.00 Ry     beta= 0.50
     Davidson diagonalization with overlap
     ethr =  7.33E-08,  avg # of iterations =  3.2

     negative rho (up, down):  5.296E-04 0.000E+00

     total cpu time spent up to now is      991.4 secs

     total energy              =   -1463.09473182 Ry
     estimated scf accuracy    <       0.00000622 Ry

     iteration # 20     ecut=    40.00 Ry     beta= 0.50
     Davidson diagonalization with overlap
     ethr =  5.46E-09,  avg # of iterations = 10.2

     negative rho (up, down):  5.489E-04 0.000E+00

     total cpu time spent up to now is     1066.9 secs

     total energy              =   -1463.09473663 Ry
     estimated scf accuracy    <       0.00001046 Ry

     iteration # 21     ecut=    40.00 Ry     beta= 0.50
     Davidson diagonalization with overlap
     ethr =  5.46E-09,  avg # of iterations =  2.0

     negative rho (up, down):  5.854E-04 0.000E+00

     total cpu time spent up to now is     1135.0 secs

     total energy              =   -1463.09473703 Ry
     estimated scf accuracy    <       0.00000117 Ry

     iteration # 22     ecut=    40.00 Ry     beta= 0.50
     Davidson diagonalization with overlap
     ethr =  1.03E-09,  avg # of iterations =  6.5

     negative rho (up, down):  5.465E-04 0.000E+00

     total cpu time spent up to now is     1172.2 secs

     End of self-consistent calculation

          k = 0.0278 0.0278 0.0000 ( 48321 PWs)   bands (ev):

   -16.7986 -10.6350  -9.2734  -8.9732  -8.9669  -8.3135  -8.3045  -7.6354
    -7.6298  -7.3254  -7.1369  -6.9788  -6.9671  -6.6835  -6.6613  -6.0260
    -6.0075  -5.5640  -5.4854  -5.3668  -5.3622  -4.9158  -4.8461  -4.7324
    -4.3119  -3.9345  -3.4662  -3.4455  -3.3533  -3.3205  -2.8612  -2.8518
    -2.8015  -2.4141  -2.2874  -2.2871  -2.1895  -2.1811  -2.1417  -2.0477
    -2.0313  -2.0019  -1.8629  -1.7998  -1.6429  -1.4351  -1.2067  -1.0377
    -0.9325  -0.8757  -0.7346  -0.6832  -0.6026  -0.5146  -0.4895  -0.4432
    -0.2885  -0.2284  -0.0055   0.0450   0.0916   0.1867   0.2563   0.2999
     0.3493   0.4049   0.6661   0.9064

          k = 0.0278 0.0833 0.0000 ( 48286 PWs)   bands (ev):

   -16.7985 -10.5234  -9.5230  -9.1634  -8.8598  -8.1999  -8.1763  -7.8710
    -7.5439  -7.5220  -7.2157  -7.0269  -6.8658  -6.5457  -6.2244  -6.0523
    -5.9177  -5.8984  -5.4102  -5.2763  -4.7797  -4.6273  -4.6189  -4.4740
    -4.2332  -4.1240  -3.9928  -3.8316  -3.3637  -3.3435  -3.3031  -3.0782
    -2.8296  -2.6338  -2.5530  -2.4749  -2.4196  -2.2499  -2.1043  -2.0731
    -1.9955  -1.9272  -1.8112  -1.7634  -1.6784  -1.3958  -1.2773  -1.2676
    -1.2467  -1.0922  -0.9950  -0.9373  -0.8169  -0.6934  -0.4661  -0.2655
    -0.1598  -0.0051   0.0140   0.2589   0.3285   0.4305   0.5390   0.6486
     0.7083   0.8715   0.9970   1.0344

          k = 0.0278 0.1389 0.0000 ( 48332 PWs)   bands (ev):

   -16.7985 -10.3005  -9.9668  -8.9442  -8.6396  -8.6136  -8.3095  -7.9799
    -7.6517  -7.3065  -6.9844  -6.8124  -6.6734  -6.6528  -6.4712  -6.3246
    -5.7037  -5.3524  -5.2018  -5.0626  -4.8857  -4.5667  -4.4326  -4.4014
    -4.2621  -4.1236  -4.0126  -3.7838  -3.6739  -3.5117  -3.3355  -3.1617
    -3.1437  -2.9088  -2.8233  -2.6444  -2.5559  -2.3212  -2.2729  -2.2194
    -2.0131  -1.8830  -1.8472  -1.7734  -1.7428  -1.6362  -1.5867  -1.4833
    -1.4189  -1.2065  -1.0786  -0.8742  -0.6272  -0.5820  -0.3312  -0.2399
    -0.0509  -0.0216   0.1821   0.3509   0.4590   0.5457   0.5752   0.6181
     0.7528   1.0716   1.2310   1.4688

          k = 0.0833 0.0833 0.0000 ( 48259 PWs)   bands (ev):

   -16.7985 -10.4119  -9.4149  -9.4095  -9.0534  -8.4193  -8.0749  -8.0605
    -7.4390  -7.4270  -7.0926  -6.9107  -6.4675  -6.4442  -6.1264  -6.1090
    -5.9976  -5.8829  -5.1541  -5.1531  -4.9885  -4.5398  -4.5241  -4.5001
    -4.1401  -4.0583  -4.0082  -3.5922  -3.5646  -3.3092  -3.2905  -3.2634
    -3.2196  -3.1583  -3.1205  -3.1203  -2.5501  -2.2954  -2.2925  -2.2582
    -2.2045  -1.8482  -1.7741  -1.6734  -1.4487  -1.2694  -1.0669  -1.0184
    -0.9685  -0.8707  -0.7657  -0.7463  -0.7221  -0.7087  -0.5989  -0.4215
    -0.3655  -0.1691   0.0561   0.1311   0.3236   0.5576   0.5862   0.5919
     0.7875   0.8662   1.0250   1.0879

          k = 0.0833 0.1389 0.0000 ( 48265 PWs)   bands (ev):

   -16.7985 -10.1891  -9.8557  -9.1909  -8.8598  -8.8342  -8.5044  -7.8496
    -7.5232  -7.2151  -6.8892  -6.7053  -6.5621  -6.3721  -5.9017  -5.7313
    -5.6040  -5.5925  -5.5712  -5.4041  -5.2409  -4.6441  -4.3152  -4.3028
    -4.2746  -3.9900  -3.9296  -3.8429  -3.7159  -3.5966  -3.5322  -3.3680
    -3.2359  -3.0676  -3.0030  -2.8610  -2.8055  -2.6967  -2.5262  -2.4117
    -2.3540  -1.9645  -1.8234  -1.7658  -1.5430  -1.4689  -1.2815  -1.1183
    -1.0743  -0.7500  -0.6625  -0.5972  -0.5428  -0.4815  -0.4199  -0.3568
    -0.2814  -0.0133   0.0500   0.3501   0.4418   0.6562   0.7047   0.7303
     0.7702   0.9094   0.9692   1.1784

          k = 0.1389 0.1389 0.0000 ( 48221 PWs)   bands (ev):

   -16.7985  -9.9667  -9.6360  -9.6314  -9.3014  -8.6153  -8.2949  -8.2769
    -7.9578  -6.4953  -6.3544  -6.3392  -6.2149  -6.1090  -6.0328  -6.0112
    -5.8176  -5.3998  -5.3685  -5.0775  -5.0536  -5.0391  -5.0191  -4.7153
    -4.7088  -4.0944  -4.0804  -3.8091  -3.7451  -3.7121  -3.4774  -3.3375
    -3.1404  -3.0829  -3.0041  -2.9484  -2.7573  -2.7420  -2.4615  -2.3510
    -2.1726  -2.0006  -1.8562  -1.7573  -1.6045  -1.5933  -1.3303  -1.2181
    -1.2137  -1.0838  -0.9382  -0.9126  -0.6478  -0.3950  -0.1792  -0.0342
     0.2409   0.2817   0.2948   0.5968   0.6344   0.7049   0.7368   0.7623
     0.8116   0.9419   0.9521   1.0675

     the Fermi energy is    -0.0981 ev

!    total energy              =   -1463.09473733 Ry

     total all-electron energy =    -17633.081767 Ry
     estimated scf accuracy    <       0.00000004 Ry
     smearing contrib. (-TS)   =       0.00612703 Ry
     internal energy E=F+TS    =   -1463.10086436 Ry

     The total energy is F=E-TS. E is the sum of the following terms:
     one-electron contribution =   -1641.84065538 Ry
     hartree contribution      =     849.59784036 Ry
     xc contribution           =     -98.56149951 Ry
     ewald contribution        =     685.66189529 Ry
     one-center paw contrib.   =   -1257.95844512 Ry

     convergence has been achieved in  22 iterations

     Writing output data file ./tmp/Al.save/

     init_run     :      8.79s CPU     20.04s WALL (       1 calls)
     electrons    :    638.73s CPU   1152.22s WALL (       1 calls)

     Called by init_run:
     wfcinit      :      5.12s CPU     13.68s WALL (       1 calls)
     potinit      :      1.77s CPU      2.73s WALL (       1 calls)
     hinit0       :      0.84s CPU      1.03s WALL (       1 calls)

     Called by electrons:
     c_bands      :    249.85s CPU    604.93s WALL (      22 calls)
     sum_band     :     51.49s CPU    114.09s WALL (      22 calls)
     v_of_rho     :     21.05s CPU     37.26s WALL (      23 calls)
     newd         :     12.79s CPU     42.53s WALL (      23 calls)
     PAW_pot      :     17.37s CPU     20.05s WALL (      23 calls)
     mix_rho      :    282.68s CPU    326.92s WALL (      22 calls)

     Called by c_bands:
     init_us_2    :      5.24s CPU     16.26s WALL (      45 calls)
     cegterg      :    196.47s CPU    538.98s WALL (      22 calls)

     Called by *egterg:
     cdiaghg      :      0.54s CPU      0.84s WALL (     110 calls)
     h_psi        :    145.54s CPU    415.35s WALL (     111 calls)
     s_psi        :     26.60s CPU     77.72s WALL (     111 calls)
     g_psi        :      0.27s CPU      0.38s WALL (      88 calls)

     Called by h_psi:
     h_psi:calbec :     36.02s CPU    189.11s WALL (     111 calls)
     vloc_psi     :     81.71s CPU     95.65s WALL (     111 calls)
     add_vuspsi   :     27.57s CPU    129.50s WALL (     111 calls)

     General routines
     calbec       :     45.72s CPU    224.15s WALL (     133 calls)
     fft          :     17.24s CPU     19.86s WALL (     297 calls)
     ffts         :    181.85s CPU    199.02s WALL (    8632 calls)
     fftw         :     85.65s CPU     95.96s WALL (    9640 calls)
     interpolate  :      1.84s CPU      2.33s WALL (      23 calls)

     Parallel routines

     PWSCF        :  10m47.69s CPU  19m32.76s WALL


   This run was terminated on:  20:29:37  20May2025            

=------------------------------------------------------------------------------=
   JOB DONE.
=------------------------------------------------------------------------------=
Note: The following floating-point exceptions are signalling: IEEE_INVALID_FLAG IEEE_DIVIDE_BY_ZERO IEEE_UNDERFLOW_FLAG
Note: The following floating-point exceptions are signalling: IEEE_INVALID_FLAG IEEE_DIVIDE_BY_ZERO IEEE_UNDERFLOW_FLAG
Note: The following floating-point exceptions are signalling: IEEE_INVALID_FLAG IEEE_DIVIDE_BY_ZERO IEEE_UNDERFLOW_FLAG
Note: The following floating-point exceptions are signalling: IEEE_INVALID_FLAG IEEE_DIVIDE_BY_ZERO IEEE_UNDERFLOW_FLAG
Note: The following floating-point exceptions are signalling: IEEE_INVALID_FLAG IEEE_DIVIDE_BY_ZERO IEEE_UNDERFLOW_FLAG
Note: The following floating-point exceptions are signalling: IEEE_INVALID_FLAG IEEE_DIVIDE_BY_ZERO IEEE_UNDERFLOW_FLAG
