No protocol specified

     Program PWSCF v.7.3.1 starts on 19May2025 at 23: 4:50 

     This program is part of the open-source Quantum ESPRESSO suite
     for quantum simulation of materials; please cite
         "P. Giannozzi et al., J. Phys.:Condens. Matter 21 395502 (2009);
         "P. Giannozzi et al., J. Phys.:Condens. Matter 29 465901 (2017);
         "P. Giannozzi et al., J. Chem. Phys. 152 154105 (2020);
          URL http://www.quantum-espresso.org", 
     in publications or presentations arising from this work. More details at
     http://www.quantum-espresso.org/quote

     Parallel version (MPI), running on    14 processors

     MPI processes distributed on     1 nodes
     22322 MiB available memory on the printing compute node when the environment starts

     Waiting for input...
     Reading input from standard input

     Current dimensions of program PWSCF are:
     Max number of different atomic species (ntypx) = 10
     Max number of k-points (npk) =  40000
     Max angular momentum in pseudopotentials (lmaxx) =  4
     Message from routine input:
     WARNING: "startingwfc" set to atomic may spoil restart
     file Al.pbe-n-kjpaw_psl.1.0.0.UPF: wavefunction(s)  3S 3P renormalized
     file O.pbe-n-kjpaw_psl.0.1.UPF: wavefunction(s)  2P renormalized
     Message from routine setup:
     using ibrav=0 with symmetry is DISCOURAGED, use correct ibrav instead

     K-points division:     npool     =       7
     R & G space division:  proc/nbgrp/npool/nimage =       2
     Subspace diagonalization in iterative solution of the eigenvalue problem:
     a serial algorithm will be used


     Parallelization info
     --------------------
     sticks:   dense  smooth     PW     G-vecs:    dense   smooth      PW
     Min        3332    1670    442               546072   193176   27050
     Max        3333    1671    443               546077   193177   27061
     Sum        6665    3341    885              1092149   386353   54111

     Using Slab Decomposition



     bravais-lattice index     =            0
     lattice parameter (alat)  =       5.3944  a.u.
     unit-cell volume          =   11302.2493 (a.u.)^3
     number of atoms/cell      =           37
     number of atomic types    =            2
     number of electrons       =       114.00
     number of Kohn-Sham states=           68
     kinetic-energy cutoff     =      40.0000  Ry
     charge density cutoff     =     320.0000  Ry
     scf convergence threshold =      1.0E-07
     mixing beta               =       0.5000
     number of iterations used =            8  local-TF  mixing
     energy convergence thresh.=      1.0E-04
     force convergence thresh. =      1.0E-03
     Exchange-correlation= SLA  PW   PBX  PBC
                           (   1   4   3   4   0   0   0)
     nstep                     =           50


     celldm(1)=   5.394412  celldm(2)=   0.000000  celldm(3)=   0.000000
     celldm(4)=   0.000000  celldm(5)=   0.000000  celldm(6)=   0.000000

     crystal axes: (cart. coord. in units of alat)
               a(1) = (   3.000000   0.000000   0.000000 )  
               a(2) = (   0.000000   3.000000   0.000000 )  
               a(3) = (   0.000000   0.000000   8.000000 )  

     reciprocal axes: (cart. coord. in units 2 pi/alat)
               b(1) = (  0.333333  0.000000  0.000000 )  
               b(2) = (  0.000000  0.333333  0.000000 )  
               b(3) = (  0.000000  0.000000  0.125000 )  


     PseudoPot. # 1 for Al read from file:
     ../../Pseudo/Al.pbe-n-kjpaw_psl.1.0.0.UPF
     MD5 check sum: dd5adf945272da8132fc805c9e56c2d6
     Pseudo is Projector augmented-wave + core cor, Zval =  3.0
     Generated using "atomic" code by A. Dal Corso  v.5.1
     Shape of augmentation charge: PSQ
     Using radial grid of 1135 points,  6 beta functions with: 
                l(1) =   0
                l(2) =   0
                l(3) =   1
                l(4) =   1
                l(5) =   2
                l(6) =   2
     Q(r) pseudized with 0 coefficients 


     PseudoPot. # 2 for O  read from file:
     ../../Pseudo/O.pbe-n-kjpaw_psl.0.1.UPF
     MD5 check sum: 0234752ac141de4415c5fc33072bef88
     Pseudo is Projector augmented-wave + core cor, Zval =  6.0
     Generated using "atomic" code by A. Dal Corso  v.5.0.99 svn rev. 10869
     Shape of augmentation charge: BESSEL
     Using radial grid of 1095 points,  4 beta functions with: 
                l(1) =   0
                l(2) =   0
                l(3) =   1
                l(4) =   1
     Q(r) pseudized with 0 coefficients 


     atomic species   valence    mass     pseudopotential
     Al                3.00     1.00000     Al( 1.00)
     O                 6.00     1.00000     O ( 1.00)

      8 Sym. Ops. (no inversion) found ( 6 have fractional translation)



   Cartesian axes

     site n.     atom                  positions (alat units)
         1        Al     tau(   1) = (   0.0000000   0.0000000   0.0000000  )
         2        Al     tau(   2) = (   0.0000000   1.0000000   0.0000000  )
         3        Al     tau(   3) = (   0.0000000   2.0000000   0.0000000  )
         4        Al     tau(   4) = (   1.0000000   0.0000000   0.0000000  )
         5        Al     tau(   5) = (   1.0000000   1.0000000   0.0000000  )
         6        Al     tau(   6) = (   1.0000000   2.0000000   0.0000000  )
         7        Al     tau(   7) = (   2.0000000   0.0000000   0.0000000  )
         8        Al     tau(   8) = (   2.0000000   1.0000000   0.0000000  )
         9        Al     tau(   9) = (   2.0000000   2.0000000   0.0000000  )
        10        Al     tau(  10) = (   0.5000000   0.5000000   0.7071068  )
        11        Al     tau(  11) = (   0.5000000   1.5000000   0.7071068  )
        12        Al     tau(  12) = (   0.5000000   2.5000000   0.7071068  )
        13        Al     tau(  13) = (   1.5000000   0.5000000   0.7071068  )
        14        Al     tau(  14) = (   1.5000000   1.5000000   0.7071068  )
        15        Al     tau(  15) = (   1.5000000   2.5000000   0.7071068  )
        16        Al     tau(  16) = (   2.5000000   0.5000000   0.7071068  )
        17        Al     tau(  17) = (   2.5000000   1.5000000   0.7071068  )
        18        Al     tau(  18) = (   2.5000000   2.5000000   0.7071068  )
        19        Al     tau(  19) = (   0.0000995  -0.0000995   1.4254818  )
        20        Al     tau(  20) = (  -0.0068894   1.0000000   1.4529023  )
        21        Al     tau(  21) = (   0.0000995   2.0000995   1.4254782  )
        22        Al     tau(  22) = (   0.9999005  -0.0000995   1.4254782  )
        23        Al     tau(  23) = (   1.0068894   1.0000000   1.4529014  )
        24        Al     tau(  24) = (   0.9999005   2.0000995   1.4254772  )
        25        Al     tau(  25) = (   2.0000000   0.0068894   1.4529023  )
        26        Al     tau(  26) = (   2.0000000   1.0000000   1.3851891  )
        27        Al     tau(  27) = (   2.0000000   1.9931106   1.4529014  )
        28        Al     tau(  28) = (   0.5000000   0.4983177   2.1662202  )
        29        Al     tau(  29) = (   0.5000000   1.5016823   2.1662190  )
        30        Al     tau(  30) = (   0.5000000   2.5000000   2.1512226  )
        31        Al     tau(  31) = (   1.5145994   0.5145994   2.1644757  )
        32        Al     tau(  32) = (   1.5145994   1.4854006   2.1644779  )
        33        Al     tau(  33) = (   1.4983177   2.5000000   2.1662190  )
        34        Al     tau(  34) = (   2.4854006   0.5145994   2.1644769  )
        35        Al     tau(  35) = (   2.4854006   1.4854006   2.1644757  )
        36        Al     tau(  36) = (   2.5016822   2.5000000   2.1662202  )
        37        O      tau(  37) = (   2.0000000   1.0000000   2.4126303  )

     number of k points=    21  Marzari-Vanderbilt smearing, width (Ry)=  0.0500
                       cart. coord. in units 2pi/alat
        k(    1) = (   0.0138889   0.0138889   0.0000000), wk =   0.0555556
        k(    2) = (   0.0138889   0.0416667   0.0000000), wk =   0.1111111
        k(    3) = (   0.0138889   0.0694444   0.0000000), wk =   0.1111111
        k(    4) = (   0.0138889   0.0972222   0.0000000), wk =   0.1111111
        k(    5) = (   0.0138889   0.1250000   0.0000000), wk =   0.1111111
        k(    6) = (   0.0138889   0.1527778   0.0000000), wk =   0.1111111
        k(    7) = (   0.0416667   0.0416667   0.0000000), wk =   0.0555556
        k(    8) = (   0.0416667   0.0694444   0.0000000), wk =   0.1111111
        k(    9) = (   0.0416667   0.0972222   0.0000000), wk =   0.1111111
        k(   10) = (   0.0416667   0.1250000   0.0000000), wk =   0.1111111
        k(   11) = (   0.0416667   0.1527778   0.0000000), wk =   0.1111111
        k(   12) = (   0.0694444   0.0694444   0.0000000), wk =   0.0555556
        k(   13) = (   0.0694444   0.0972222   0.0000000), wk =   0.1111111
        k(   14) = (   0.0694444   0.1250000   0.0000000), wk =   0.1111111
        k(   15) = (   0.0694444   0.1527778   0.0000000), wk =   0.1111111
        k(   16) = (   0.0972222   0.0972222   0.0000000), wk =   0.0555556
        k(   17) = (   0.0972222   0.1250000   0.0000000), wk =   0.1111111
        k(   18) = (   0.0972222   0.1527778   0.0000000), wk =   0.1111111
        k(   19) = (   0.1250000   0.1250000   0.0000000), wk =   0.0555556
        k(   20) = (   0.1250000   0.1527778   0.0000000), wk =   0.1111111
        k(   21) = (   0.1527778   0.1527778   0.0000000), wk =   0.0555556

     Dense  grid:  1092149 G-vectors     FFT dimensions: (  96,  96, 250)

     Smooth grid:   386353 G-vectors     FFT dimensions: (  72,  72, 180)

     Estimated max dynamical RAM per process >    1016.75 MB

     Estimated total dynamical RAM >      12.34 GB

     Atomic positions and unit cell read from directory:
     ./tmp/Al.save/


     The initial density is read from file :
     ./tmp/Al.save/charge-density


     negative rho (up, down):  5.157E-04 0.000E+00
     Starting wfcs are  148 atomic wfcs
     Checking if some PAW data can be deallocated... 

     total cpu time spent up to now is       21.1 secs

     Self-consistent Calculation

     iteration #  1     ecut=    40.00 Ry     beta= 0.50
     Davidson diagonalization with overlap
     c_bands:  1 eigenvalues not converged
     c_bands:  3 eigenvalues not converged
     ethr =  1.00E-05,  avg # of iterations = 21.7

     Threshold (ethr) on eigenvalues was too large:
     Diagonalizing with lowered threshold

     Davidson diagonalization with overlap
     c_bands:  2 eigenvalues not converged
     ethr =  5.21E-08,  avg # of iterations = 16.3

     negative rho (up, down):  5.207E-04 0.000E+00

     total cpu time spent up to now is      209.6 secs

     total energy              =   -1463.18897800 Ry
     estimated scf accuracy    <       0.00000164 Ry

     iteration #  2     ecut=    40.00 Ry     beta= 0.50
     Davidson diagonalization with overlap
     ethr =  1.44E-09,  avg # of iterations =  9.8

     negative rho (up, down):  5.244E-04 0.000E+00

     total cpu time spent up to now is      258.0 secs

     total energy              =   -1463.18897929 Ry
     estimated scf accuracy    <       0.00000018 Ry

     iteration #  3     ecut=    40.00 Ry     beta= 0.50
     Davidson diagonalization with overlap
     ethr =  1.60E-10,  avg # of iterations =  6.4

     negative rho (up, down):  5.157E-04 0.000E+00

     total cpu time spent up to now is      293.3 secs

     End of self-consistent calculation

          k = 0.0139 0.0139 0.0000 ( 48331 PWs)   bands (ev):

   -19.4009 -10.3879  -9.0360  -8.6089  -8.5581  -8.2913  -8.2156  -7.4713
    -7.4543  -7.0753  -7.0684  -6.9176  -6.7570  -6.5816  -6.4276  -6.3548
    -6.1479  -6.0210  -5.4150  -5.2392  -5.1344  -5.0888  -4.9199  -4.8189
    -4.4929  -4.4859  -4.0990  -3.7112  -3.2268  -2.9778  -2.9650  -2.8117
    -2.7215  -2.5731  -2.3824  -2.2109  -2.1871  -2.1456  -1.9763  -1.8579
    -1.6706  -1.6032  -1.4938  -1.4203  -1.3866  -1.3202  -1.1088  -0.9794
    -0.8197  -0.5752  -0.3124  -0.3104  -0.2141  -0.1793  -0.1681  -0.0813
    -0.0526   0.0571   0.1094   0.1598   0.2395   0.3012   0.3468   0.3523
     0.4562   0.5864   0.7778   1.1090

          k = 0.0139 0.0417 0.0000 ( 48320 PWs)   bands (ev):

   -19.4009 -10.3603  -9.0116  -8.8794  -8.5535  -8.2337  -7.9127  -7.6551
    -7.4509  -7.1419  -7.0292  -6.9032  -6.8605  -6.7078  -6.3444  -6.2706
    -6.0007  -5.7694  -5.5951  -5.3810  -5.3003  -5.0175  -4.7724  -4.5722
    -4.4027  -4.3635  -4.0708  -3.6675  -3.5493  -3.3906  -3.0580  -2.8500
    -2.5762  -2.5615  -2.3599  -2.2048  -2.1508  -2.0819  -1.8814  -1.8522
    -1.7632  -1.6674  -1.6082  -1.5771  -1.5025  -1.3413  -1.0825  -0.9132
    -0.8347  -0.6049  -0.5594  -0.4578  -0.3397  -0.2878  -0.2300  -0.1073
    -0.0230   0.0369   0.1381   0.1966   0.3503   0.4381   0.5559   0.6301
     0.6544   0.7487   0.8690   1.1692

          k = 0.0139 0.0694 0.0000 ( 48291 PWs)   bands (ev):

   -19.4009 -10.3050  -9.1540  -8.9560  -8.5008  -8.1802  -7.9014  -7.5323
    -7.4665  -7.3198  -7.0582  -6.9867  -6.8235  -6.7028  -6.3768  -6.0867
    -5.8530  -5.7042  -5.5914  -5.4442  -5.2988  -4.9724  -4.6376  -4.4122
    -4.2250  -4.0911  -4.0610  -4.0058  -3.6885  -3.5354  -3.2025  -2.8925
    -2.7976  -2.5830  -2.3779  -2.3205  -2.1658  -2.1257  -2.0705  -1.9725
    -1.7702  -1.7464  -1.6546  -1.4722  -1.2504  -1.2029  -1.1194  -0.9960
    -0.9318  -0.8994  -0.8162  -0.7340  -0.6233  -0.4693  -0.2608   0.0205
     0.0992   0.2074   0.2988   0.3567   0.4233   0.6553   0.7025   0.8278
     0.9483   1.0013   1.1277   1.1901

          k = 0.0139 0.0972 0.0000 ( 48293 PWs)   bands (ev):

   -19.4009 -10.2222  -9.3984  -8.8799  -8.4216  -8.1284  -8.0836  -7.6336
    -7.4028  -7.2019  -7.1646  -6.9485  -6.8030  -6.5822  -6.4475  -6.0889
    -5.8999  -5.7198  -5.4907  -5.2535  -4.9730  -4.9091  -4.6483  -4.5683
    -4.2758  -4.0079  -3.9449  -3.7737  -3.7164  -3.6173  -3.2765  -3.0873
    -3.0051  -2.8386  -2.6844  -2.5617  -2.1939  -2.0476  -1.9873  -1.8406
    -1.8033  -1.6542  -1.6360  -1.4935  -1.4690  -1.3823  -1.3173  -1.2263
    -1.0852  -1.0177  -0.8273  -0.7562  -0.5735  -0.4680  -0.1838  -0.0389
     0.0991   0.3401   0.4144   0.5318   0.6328   0.6856   0.8086   0.9618
     1.0348   1.0837   1.1361   1.1840

          k = 0.0139 0.1250 0.0000 ( 48304 PWs)   bands (ev):

   -19.4009 -10.1119  -9.6172  -8.7788  -8.3367  -8.2877  -7.9969  -7.8286
    -7.5372  -7.2091  -7.0383  -6.7796  -6.6508  -6.5360  -6.4596  -6.2392
    -5.9560  -5.7906  -5.2469  -5.1541  -4.8693  -4.8372  -4.5832  -4.5267
    -4.2434  -4.0654  -3.9149  -3.8231  -3.5760  -3.5206  -3.3637  -3.2802
    -3.2180  -3.0508  -2.7781  -2.5603  -2.1818  -2.1325  -2.0325  -1.9535
    -1.8681  -1.7789  -1.6915  -1.5642  -1.5149  -1.4969  -1.4085  -1.2218
    -1.1459  -1.0081  -0.9651  -0.7587  -0.6168  -0.3283  -0.1464  -0.0505
     0.1910   0.3060   0.4931   0.5330   0.6151   0.7846   0.8783   0.9413
     1.0060   1.2500   1.3745   1.4690

          k = 0.0139 0.1528 0.0000 ( 48302 PWs)   bands (ev):

   -19.4009  -9.9743  -9.8092  -8.6597  -8.4796  -8.1815  -8.0189  -7.8603
    -7.6987  -7.1797  -7.0363  -6.6794  -6.6033  -6.4413  -6.3573  -6.2458
    -6.0002  -5.8266  -5.6258  -4.9291  -4.7485  -4.5888  -4.4586  -4.3669
    -4.2473  -4.0823  -4.0453  -3.9076  -3.7191  -3.6547  -3.5642  -3.3704
    -3.0320  -2.8114  -2.6006  -2.5395  -2.4029  -2.3318  -2.3185  -2.0813
    -1.9306  -1.8155  -1.7090  -1.6571  -1.5898  -1.4195  -1.3406  -1.1965
    -1.1265  -1.0672  -0.8498  -0.6569  -0.5363  -0.4584  -0.3474  -0.0804
     0.1210   0.3180   0.4436   0.5527   0.6336   0.8530   0.8999   1.2024
     1.2482   1.3615   1.4850   1.6581

          k = 0.0417 0.0417 0.0000 ( 48283 PWs)   bands (ev):

   -19.4009 -10.3326  -8.9874  -8.8729  -8.8275  -7.9363  -7.8511  -7.6644
    -7.6038  -7.3930  -6.9130  -6.8952  -6.8474  -6.4400  -6.3742  -6.2902
    -6.1114  -5.8182  -5.4220  -5.3042  -5.2799  -5.1202  -4.7959  -4.4635
    -4.2788  -4.2053  -4.0469  -3.7682  -3.5526  -3.4714  -3.3191  -2.8655
    -2.7739  -2.5593  -2.5007  -2.1720  -2.1536  -2.0822  -1.9822  -1.8536
    -1.7524  -1.7086  -1.6241  -1.5550  -1.5147  -1.2732  -1.1324  -0.8868
    -0.7589  -0.6880  -0.5385  -0.4205  -0.3353  -0.3005  -0.2698  -0.2592
    -0.2154  -0.0884   0.0839   0.3063   0.4531   0.5582   0.6910   0.7007
     0.8536   0.9677   1.0199   1.1287

          k = 0.0417 0.0694 0.0000 ( 48291 PWs)   bands (ev):

   -19.4009 -10.2774  -9.1274  -8.9311  -8.7953  -7.8897  -7.8490  -7.6796
    -7.5551  -7.4966  -6.9342  -6.8896  -6.7424  -6.5649  -6.3619  -6.1252
    -5.9485  -5.8668  -5.4898  -5.3816  -5.0947  -5.0056  -4.6720  -4.4021
    -4.1713  -4.0948  -4.0083  -3.9026  -3.7855  -3.4320  -3.3074  -3.0283
    -2.8618  -2.6840  -2.5922  -2.4829  -2.4202  -2.2942  -1.9539  -1.9147
    -1.7012  -1.6667  -1.5504  -1.4520  -1.3980  -1.2726  -1.1330  -0.9396
    -0.8396  -0.7096  -0.6890  -0.6347  -0.5757  -0.3675  -0.2803  -0.2261
    -0.0392   0.0693   0.1620   0.4779   0.5486   0.6674   0.7141   0.8372
     0.8622   0.9679   1.0422   1.2474

          k = 0.0417 0.0972 0.0000 ( 48284 PWs)   bands (ev):

   -19.4009 -10.1946  -9.3712  -8.8549  -8.7157  -8.0912  -7.9187  -7.7594
    -7.5092  -7.1677  -6.9887  -6.9318  -6.6930  -6.5812  -6.4593  -6.0283
    -5.8752  -5.6053  -5.5627  -5.4075  -5.0581  -4.7041  -4.6088  -4.5355
    -4.2481  -4.1116  -3.9201  -3.8785  -3.5086  -3.4323  -3.2958  -3.2476
    -3.1667  -3.0148  -2.7650  -2.5531  -2.4510  -2.3150  -2.1470  -1.9271
    -1.8344  -1.6403  -1.5360  -1.4964  -1.4492  -1.3012  -1.1625  -1.0770
    -0.9573  -0.8225  -0.7927  -0.7029  -0.4929  -0.2549  -0.1777  -0.0107
     0.0141   0.1278   0.1877   0.4459   0.5818   0.6430   0.7241   0.9163
     0.9733   1.1098   1.2718   1.3888

          k = 0.0417 0.1250 0.0000 ( 48328 PWs)   bands (ev):

   -19.4009 -10.0844  -9.5898  -8.7536  -8.6099  -8.2832  -8.1238  -7.6683
    -7.4424  -7.1437  -7.0980  -6.7583  -6.6164  -6.5554  -6.4298  -6.0588
    -5.9420  -5.6452  -5.2311  -5.1846  -5.1313  -4.9609  -4.6540  -4.2527
    -4.1920  -3.9992  -3.8565  -3.7828  -3.7042  -3.6165  -3.4186  -3.2192
    -3.1688  -3.0541  -2.8214  -2.7527  -2.5662  -2.3702  -2.3076  -1.9585
    -1.8919  -1.6828  -1.6411  -1.5463  -1.4271  -1.3701  -1.2904  -1.1660
    -1.0442  -0.9408  -0.8392  -0.6699  -0.3453  -0.2417  -0.1729   0.0704
     0.2007   0.3132   0.3874   0.4165   0.5549   0.5696   0.6562   0.8552
     1.0735   1.1830   1.3388   1.5595

          k = 0.0417 0.1528 0.0000 ( 48301 PWs)   bands (ev):

   -19.4009  -9.9467  -9.7817  -8.6346  -8.4951  -8.4322  -8.3071  -7.5691
    -7.4100  -7.2374  -7.1598  -6.7463  -6.5605  -6.3971  -6.2489  -6.1138
    -5.9360  -5.7147  -5.6048  -4.9621  -4.9128  -4.7231  -4.7023  -4.3334
    -4.2479  -3.9877  -3.9603  -3.7656  -3.6725  -3.5588  -3.4117  -3.2617
    -3.1935  -3.0802  -2.9451  -2.7702  -2.6406  -2.3227  -2.2307  -2.1455
    -2.0263  -1.8743  -1.7573  -1.5052  -1.4007  -1.2961  -1.2453  -1.1802
    -1.0867  -1.0597  -0.8942  -0.6742  -0.3498  -0.1155  -0.0399   0.0703
     0.1305   0.2481   0.3114   0.3997   0.5510   0.7630   0.8661   0.9256
     1.1737   1.2421   1.2599   1.5316

          k = 0.0694 0.0694 0.0000 ( 48265 PWs)   bands (ev):

   -19.4009 -10.2222  -9.0946  -9.0467  -8.8781  -7.9487  -7.8787  -7.7619
    -7.5059  -7.4034  -6.9773  -6.7835  -6.7103  -6.4135  -6.2560  -6.1983
    -5.9838  -5.8176  -5.4832  -5.4193  -5.0620  -4.7026  -4.6715  -4.4633
    -4.1737  -4.0251  -3.9701  -3.8847  -3.8360  -3.5995  -3.1452  -2.9247
    -2.9053  -2.8852  -2.8007  -2.7964  -2.7122  -2.4571  -2.2530  -1.8682
    -1.7401  -1.6525  -1.6131  -1.3702  -1.2987  -1.2462  -0.9873  -0.8603
    -0.7368  -0.6778  -0.6561  -0.5583  -0.5351  -0.4557  -0.3424  -0.2920
    -0.0873   0.0541   0.4120   0.4337   0.4620   0.5955   0.7105   0.8314
     0.9779   0.9857   1.0926   1.1669

          k = 0.0694 0.0972 0.0000 ( 48277 PWs)   bands (ev):

   -19.4009 -10.1395  -9.3172  -8.9874  -8.8024  -8.1779  -8.0463  -7.7412
    -7.4084  -7.1505  -6.9876  -6.7809  -6.6509  -6.4529  -6.3902  -5.8671
    -5.8546  -5.7881  -5.4676  -5.4299  -5.0710  -4.6808  -4.6289  -4.4217
    -4.2556  -4.0898  -3.8865  -3.8254  -3.7376  -3.4288  -3.3524  -3.2336
    -3.1103  -3.0906  -2.8855  -2.7376  -2.5944  -2.5862  -2.1821  -2.1058
    -2.0662  -1.9320  -1.5893  -1.5373  -1.1735  -1.1288  -0.8858  -0.8707
    -0.7602  -0.7311  -0.6442  -0.5217  -0.4249  -0.3250  -0.2563  -0.1972
    -0.0801  -0.0192   0.2337   0.3373   0.5730   0.6569   0.9342   0.9476
     1.0104   1.1168   1.2066   1.4103

          k = 0.0694 0.1250 0.0000 ( 48305 PWs)   bands (ev):

   -19.4009 -10.0293  -9.5351  -8.8797  -8.7031  -8.3883  -8.2367  -7.6592
    -7.3620  -7.1639  -6.8947  -6.7147  -6.5806  -6.4849  -6.3482  -5.9502
    -5.7594  -5.4713  -5.4279  -5.2581  -5.1322  -5.0073  -4.7795  -4.3285
    -4.0424  -3.8944  -3.8471  -3.8018  -3.7574  -3.6460  -3.5378  -3.3097
    -3.2978  -3.0770  -2.8837  -2.6349  -2.6195  -2.5087  -2.4338  -2.2983
    -2.1423  -2.0241  -1.6903  -1.4898  -1.4402  -1.1890  -1.0605  -0.9502
    -0.6872  -0.6434  -0.5107  -0.4534  -0.3895  -0.3440  -0.2175  -0.1703
    -0.0335   0.0734   0.3283   0.5432   0.6642   0.7676   0.8856   0.8948
     1.0237   1.1165   1.2354   1.3794

          k = 0.0694 0.1528 0.0000 ( 48303 PWs)   bands (ev):

   -19.4009  -9.8917  -9.7268  -8.7461  -8.6098  -8.5490  -8.4019  -7.5678
    -7.4109  -7.1152  -6.9879  -6.7332  -6.5260  -6.3164  -6.1849  -6.0052
    -5.6838  -5.5694  -5.5391  -5.1838  -4.9617  -4.9254  -4.7924  -4.4642
    -4.3242  -4.0003  -3.6912  -3.6488  -3.6297  -3.5210  -3.4920  -3.4377
    -3.3513  -3.1774  -3.0130  -2.8385  -2.5878  -2.4852  -2.3806  -2.3020
    -2.1776  -1.9873  -1.8702  -1.5683  -1.4241  -1.2580  -1.1640  -0.9831
    -0.9028  -0.6484  -0.5246  -0.4186  -0.2913  -0.2334  -0.1434  -0.0888
     0.1563   0.1993   0.3703   0.4103   0.6073   0.7189   0.7564   0.9517
     1.2001   1.2372   1.3320   1.5126

          k = 0.0972 0.0972 0.0000 ( 48275 PWs)   bands (ev):

   -19.4009 -10.0568  -9.2554  -9.2119  -8.7278  -8.4151  -8.0281  -7.8934
    -7.3345  -6.9817  -6.9615  -6.6880  -6.6452  -6.3761  -6.0853  -6.0359
    -5.7686  -5.7081  -5.4355  -5.3953  -4.9749  -4.7753  -4.6262  -4.4810
    -4.4222  -4.0472  -3.8434  -3.7941  -3.6575  -3.6254  -3.4835  -3.2153
    -3.1835  -3.0279  -2.9716  -2.9117  -2.6427  -2.5328  -2.3466  -2.3363
    -2.1636  -2.0086  -1.8383  -1.4728  -1.1477  -1.0484  -0.8318  -0.7375
    -0.7097  -0.6636  -0.6421  -0.5925  -0.3354  -0.3231  -0.2305  -0.0706
    -0.0298   0.1042   0.1951   0.2438   0.4369   0.7318   1.0757   1.1123
     1.1402   1.2708   1.2763   1.3746

          k = 0.0972 0.1250 0.0000 ( 48248 PWs)   bands (ev):

   -19.4009  -9.9467  -9.4536  -9.1233  -8.6616  -8.5952  -8.1713  -7.8487
    -7.4609  -6.9149  -6.8053  -6.6054  -6.4897  -6.2959  -6.2071  -5.8920
    -5.6753  -5.5806  -5.3820  -5.2323  -5.0499  -4.9321  -4.8595  -4.4086
    -4.3584  -4.2247  -3.9718  -3.8224  -3.6870  -3.5518  -3.4609  -3.2839
    -3.1666  -3.0838  -2.9493  -2.8506  -2.7786  -2.5828  -2.5135  -2.3181
    -2.2071  -2.0812  -1.8067  -1.5093  -1.3668  -1.0693  -0.9816  -0.8850
    -0.7279  -0.6424  -0.5594  -0.4851  -0.4174  -0.2686  -0.1331  -0.0402
     0.1216   0.1955   0.2846   0.5076   0.5991   0.6818   0.9258   0.9962
     1.1715   1.2398   1.3736   1.5097

          k = 0.0972 0.1528 0.0000 ( 48260 PWs)   bands (ev):

   -19.4009  -9.8092  -9.6447  -8.9884  -8.8261  -8.4986  -8.3332  -7.7413
    -7.6015  -6.8545  -6.8018  -6.5538  -6.4207  -6.2073  -6.0797  -5.9431
    -5.5456  -5.4790  -5.3819  -5.2677  -5.1564  -4.9417  -4.8062  -4.6281
    -4.3239  -4.2100  -4.0941  -3.9329  -3.6749  -3.5355  -3.3869  -3.3031
    -3.2033  -3.0291  -2.9003  -2.8051  -2.7583  -2.6977  -2.5674  -2.4474
    -2.3046  -1.9320  -1.7669  -1.5073  -1.3494  -1.2628  -1.1533  -1.0006
    -0.9460  -0.6188  -0.4687  -0.3781  -0.2475  -0.2264  -0.0892   0.0919
     0.1463   0.1750   0.2026   0.4977   0.5885   0.8417   0.9871   1.1547
     1.2673   1.3540   1.3710   1.4376

          k = 0.1250 0.1250 0.0000 ( 48243 PWs)   bands (ev):

   -19.4009  -9.8367  -9.3633  -9.3222  -8.8537  -8.5186  -8.1308  -7.9824
    -7.6270  -6.7834  -6.7659  -6.4039  -6.3254  -6.1490  -5.8851  -5.8798
    -5.8647  -5.6038  -5.3712  -5.0222  -5.0174  -4.8963  -4.8639  -4.6667
    -4.4288  -4.4159  -4.3818  -3.9267  -3.5662  -3.5555  -3.4447  -3.1725
    -3.0975  -3.0859  -3.0601  -2.8922  -2.8625  -2.7295  -2.4768  -2.3477
    -2.1047  -2.0782  -1.6371  -1.4701  -1.4282  -1.2643  -1.0914  -0.9280
    -0.8554  -0.7344  -0.6978  -0.6559  -0.2461  -0.2194  -0.0704   0.0789
     0.2488   0.3474   0.5287   0.6209   0.6767   0.6788   0.9160   1.0074
     1.1106   1.3075   1.4354   1.5474

          k = 0.1250 0.1528 0.0000 ( 48229 PWs)   bands (ev):

   -19.4009  -9.6995  -9.5356  -9.2052  -9.0422  -8.3983  -8.2457  -7.9171
    -7.7836  -6.7616  -6.7541  -6.2493  -6.1178  -6.0641  -5.9321  -5.8798
    -5.6260  -5.5059  -5.4477  -5.2976  -4.9952  -4.8676  -4.8504  -4.6845
    -4.5895  -4.5523  -4.2748  -3.9647  -3.7814  -3.5577  -3.4258  -3.3955
    -3.2371  -3.0535  -2.9295  -2.7955  -2.6885  -2.6067  -2.5260  -2.3256
    -2.2406  -1.8781  -1.8009  -1.4636  -1.3877  -1.3120  -1.1278  -1.0487
    -0.9384  -0.8794  -0.6641  -0.6120  -0.3825  -0.3137  -0.0519   0.1560
     0.3293   0.6123   0.6683   0.7110   0.7377   0.7683   0.9510   0.9943
     1.1164   1.2304   1.3441   1.4695

          k = 0.1528 0.1528 0.0000 ( 48245 PWs)   bands (ev):

   -19.4009  -9.5629  -9.4174  -9.3775  -9.2322  -8.2785  -8.1828  -8.0348
    -7.9366  -6.7433  -6.7413  -6.0432  -5.9343  -5.8429  -5.7925  -5.6912
    -5.6601  -5.5954  -5.5023  -5.2448  -5.2345  -5.1306  -5.0600  -4.6914
    -4.4659  -4.3791  -4.2576  -3.9945  -3.8867  -3.8036  -3.7616  -3.2990
    -3.2138  -3.1031  -3.1016  -2.8221  -2.3910  -2.3770  -2.3074  -2.2322
    -2.1456  -1.9183  -1.8314  -1.7336  -1.6020  -1.2271  -1.1028  -0.9780
    -0.9610  -0.8159  -0.7837  -0.7431  -0.6762  -0.5416   0.3042   0.3789
     0.4937   0.5079   0.6173   0.7176   0.8144   0.8166   0.8960   1.1361
     1.1572   1.3358   1.4455   1.4605

     the Fermi energy is     0.1307 ev

!    total energy              =   -1463.18897934 Ry
     total all-electron energy =    -17633.176009 Ry
     estimated scf accuracy    <       0.00000002 Ry
     smearing contrib. (-TS)   =       0.00118330 Ry
     internal energy E=F+TS    =   -1463.19016264 Ry

     The total energy is F=E-TS. E is the sum of the following terms:
     one-electron contribution =   -1679.53970921 Ry
     hartree contribution      =     868.61707490 Ry
     xc contribution           =     -98.59825170 Ry
     ewald contribution        =     704.23921501 Ry
     one-center paw contrib.   =   -1257.90849165 Ry

     convergence has been achieved in   3 iterations

     negative rho (up, down):  5.157E-04 0.000E+00

     Forces acting on atoms (cartesian axes, Ry/au):

     atom    1 type  1   force =    -0.00106679    0.00106679   -0.00424430
     atom    2 type  1   force =     0.00022037    0.00000000   -0.00511524
     atom    3 type  1   force =    -0.00106679   -0.00106679   -0.00424430
     atom    4 type  1   force =     0.00106679    0.00106679   -0.00424430
     atom    5 type  1   force =    -0.00022037    0.00000000   -0.00511524
     atom    6 type  1   force =     0.00106679   -0.00106679   -0.00424430
     atom    7 type  1   force =     0.00000000   -0.00022037   -0.00511524
     atom    8 type  1   force =     0.00000000    0.00000000   -0.00642070
     atom    9 type  1   force =     0.00000000    0.00022037   -0.00511524
     atom   10 type  1   force =     0.00000000    0.00220036    0.00669142
     atom   11 type  1   force =     0.00000000   -0.00220036    0.00669142
     atom   12 type  1   force =     0.00000000    0.00000000    0.00642511
     atom   13 type  1   force =    -0.00251830   -0.00251830    0.00201471
     atom   14 type  1   force =    -0.00251830    0.00251830    0.00201471
     atom   15 type  1   force =     0.00220036    0.00000000    0.00669142
     atom   16 type  1   force =     0.00251830   -0.00251830    0.00201471
     atom   17 type  1   force =     0.00251830    0.00251830    0.00201471
     atom   18 type  1   force =    -0.00220036    0.00000000    0.00669142
     atom   19 type  1   force =     0.00012313   -0.00012313   -0.00012456
     atom   20 type  1   force =    -0.00000110    0.00000000    0.00002106
     atom   21 type  1   force =     0.00012313    0.00012313   -0.00012456
     atom   22 type  1   force =    -0.00012313   -0.00012313   -0.00012456
     atom   23 type  1   force =     0.00000110    0.00000000    0.00002106
     atom   24 type  1   force =    -0.00012313    0.00012313   -0.00012456
     atom   25 type  1   force =     0.00000000    0.00000110    0.00002106
     atom   26 type  1   force =     0.00000000    0.00000000   -0.00005856
     atom   27 type  1   force =     0.00000000   -0.00000110    0.00002106
     atom   28 type  1   force =     0.00000000    0.00016668    0.00055243
     atom   29 type  1   force =     0.00000000   -0.00016668    0.00055243
     atom   30 type  1   force =     0.00000000    0.00000000    0.00020117
     atom   31 type  1   force =    -0.00000970   -0.00000970    0.00027045
     atom   32 type  1   force =    -0.00000970    0.00000970    0.00027045
     atom   33 type  1   force =     0.00016668    0.00000000    0.00055243
     atom   34 type  1   force =     0.00000970   -0.00000970    0.00027045
     atom   35 type  1   force =     0.00000970    0.00000970    0.00027045
     atom   36 type  1   force =    -0.00016668    0.00000000    0.00055243
     atom   37 type  2   force =     0.00000000    0.00000000   -0.00041090

     Total force =     0.001422     Total SCF correction =     0.000155
     SCF correction compared to forces is large: reduce conv_thr to get better values

     BFGS Geometry Optimization
     Energy error            =      0.0E+00 Ry
     Gradient error          =      5.5E-04 Ry/Bohr

     bfgs converged in   1 scf cycles and   0 bfgs steps
     (criteria: energy <  1.0E-04 Ry, force <  1.0E-03 Ry/Bohr)

     End of BFGS Geometry Optimization

     Final energy             =   -1463.1889793423 Ry
Begin final coordinates

ATOMIC_POSITIONS (alat)
Al               0.0000000000        0.0000000000        0.0000000000    0   0   0
Al               0.0000000000        0.9999999969        0.0000000000    0   0   0
Al               0.0000000000        1.9999999938        0.0000000000    0   0   0
Al               0.9999999969        0.0000000000        0.0000000000    0   0   0
Al               0.9999999969        0.9999999969        0.0000000000    0   0   0
Al               0.9999999969        1.9999999938        0.0000000000    0   0   0
Al               1.9999999938        0.0000000000        0.0000000000    0   0   0
Al               1.9999999938        0.9999999969        0.0000000000    0   0   0
Al               1.9999999938        1.9999999938        0.0000000000    0   0   0
Al               0.4999999984        0.4999999984        0.7071067668    0   0   0
Al               0.4999999984        1.4999999955        0.7071067668    0   0   0
Al               0.4999999984        2.4999999922        0.7071067668    0   0   0
Al               1.4999999955        0.4999999984        0.7071067668    0   0   0
Al               1.4999999955        1.4999999955        0.7071067668    0   0   0
Al               1.4999999955        2.4999999922        0.7071067668    0   0   0
Al               2.4999999922        0.4999999984        0.7071067668    0   0   0
Al               2.4999999922        1.4999999955        0.7071067668    0   0   0
Al               2.4999999922        2.4999999922        0.7071067668    0   0   0
Al               0.0000994593       -0.0000994593        1.4254817586
Al              -0.0068893666        0.9999999969        1.4529023311
Al               0.0000994593        2.0000994532        1.4254781629
Al               0.9999005376       -0.0000994593        1.4254781629
Al               1.0068893636        0.9999999969        1.4529013724
Al               0.9999005376        2.0000994532        1.4254772042
Al               1.9999999938        0.0068893666        1.4529023311
Al               1.9999999938        0.9999999969        1.3851891229
Al               1.9999999938        1.9931106272        1.4529013724
Al               0.4999999984        0.4983177433        2.1662201593
Al               0.4999999984        1.5016822506        2.1662189713
Al               0.4999999984        2.4999999922        2.1512226071
Al               1.5145993730        0.5145993761        2.1644756918
Al               1.5145993730        1.4854006178        2.1644779493
Al               1.4983177402        2.4999999922        2.1662189713
Al               2.4854006147        0.5145993761        2.1644768798
Al               2.4854006147        1.4854006178        2.1644756918
Al               2.5016822475        2.4999999922        2.1662201593
O                1.9999999985        0.9999999993        2.4126302520    0   0   1
End final coordinates



     Writing all to output data dir ./tmp/Al.save/ :
     XML data file, charge density, pseudopotentials, collected wavefunctions

     init_run     :     19.28s CPU     20.81s WALL (       1 calls)
     electrons    :    265.25s CPU    272.39s WALL (       1 calls)
     forces       :      9.66s CPU     10.09s WALL (       1 calls)

     Called by init_run:
     wfcinit      :     16.12s CPU     17.07s WALL (       1 calls)
     potinit      :      1.49s CPU      1.79s WALL (       1 calls)
     hinit0       :      0.57s CPU      0.64s WALL (       1 calls)

     Called by electrons:
     c_bands      :    234.72s CPU    239.69s WALL (       4 calls)
     sum_band     :     20.70s CPU     21.75s WALL (       4 calls)
     v_of_rho     :      3.80s CPU      4.37s WALL (       4 calls)
     newd         :      1.97s CPU      2.52s WALL (       4 calls)
     PAW_pot      :      1.67s CPU      1.67s WALL (       4 calls)
     mix_rho      :      3.69s CPU      3.90s WALL (       4 calls)

     Called by c_bands:
     init_us_2    :      5.30s CPU      5.56s WALL (      30 calls)
     cegterg      :    204.55s CPU    209.24s WALL (      13 calls)

     Called by *egterg:
     cdiaghg      :      1.12s CPU      1.12s WALL (     194 calls)
     h_psi        :    159.83s CPU    164.37s WALL (     201 calls)
     s_psi        :     27.76s CPU     27.87s WALL (     201 calls)
     g_psi        :      0.51s CPU      0.51s WALL (     185 calls)

     Called by h_psi:
     h_psi:calbec :     25.54s CPU     25.94s WALL (     201 calls)
     vloc_psi     :    105.88s CPU    109.54s WALL (     201 calls)
     add_vuspsi   :     27.73s CPU     27.84s WALL (     201 calls)

     General routines
     calbec       :     32.22s CPU     32.65s WALL (     225 calls)
     fft          :      2.85s CPU      3.20s WALL (      62 calls)
     ffts         :      1.76s CPU      1.88s WALL (     254 calls)
     fftw         :     79.19s CPU     82.56s WALL (   11844 calls)
     interpolate  :      0.27s CPU      0.31s WALL (       4 calls)

     Parallel routines

     PWSCF        :   4m54.67s CPU   5m 5.89s WALL


   This run was terminated on:  23: 9:56  19May2025            

=------------------------------------------------------------------------------=
   JOB DONE.
=------------------------------------------------------------------------------=
