No protocol specified

     Program PWSCF v.7.3.1 starts on 19May2025 at 17:13:13 

     This program is part of the open-source Quantum ESPRESSO suite
     for quantum simulation of materials; please cite
         "P. Giannozzi et al., J. Phys.:Condens. Matter 21 395502 (2009);
         "P. Giannozzi et al., J. Phys.:Condens. Matter 29 465901 (2017);
         "P. Giannozzi et al., J. Chem. Phys. 152 154105 (2020);
          URL http://www.quantum-espresso.org", 
     in publications or presentations arising from this work. More details at
     http://www.quantum-espresso.org/quote

     Parallel version (MPI), running on     3 processors

     MPI processes distributed on     1 nodes
     22556 MiB available memory on the printing compute node when the environment starts

     Waiting for input...
     Reading input from standard input

     Current dimensions of program PWSCF are:
     Max number of different atomic species (ntypx) = 10
     Max number of k-points (npk) =  40000
     Max angular momentum in pseudopotentials (lmaxx) =  4
     Message from routine input:
     WARNING: "startingwfc" set to atomic may spoil restart
     file Al.pbe-n-kjpaw_psl.1.0.0.UPF: wavefunction(s)  3S 3P renormalized
     file O.pbe-n-kjpaw_psl.0.1.UPF: wavefunction(s)  2P renormalized
     Message from routine setup:
     using ibrav=0 with symmetry is DISCOURAGED, use correct ibrav instead

     K-points division:     npool     =       3
     Subspace diagonalization in iterative solution of the eigenvalue problem:
     a serial algorithm will be used


     G-vector sticks info
     --------------------
     sticks:   dense  smooth     PW     G-vecs:    dense   smooth      PW
     Sum        6665    3341    885              1092149   386353   53141

     Using Slab Decomposition



     bravais-lattice index     =            0
     lattice parameter (alat)  =       5.3944  a.u.
     unit-cell volume          =   11302.2493 (a.u.)^3
     number of atoms/cell      =           37
     number of atomic types    =            2
     number of electrons       =       114.00
     number of Kohn-Sham states=           68
     kinetic-energy cutoff     =      40.0000  Ry
     charge density cutoff     =     320.0000  Ry
     scf convergence threshold =      1.0E-07
     mixing beta               =       0.5000
     number of iterations used =            8  local-TF  mixing
     energy convergence thresh.=      1.0E-04
     force convergence thresh. =      1.0E-03
     Exchange-correlation= SLA  PW   PBX  PBC
                           (   1   4   3   4   0   0   0)
     nstep                     =           50


     celldm(1)=   5.394412  celldm(2)=   0.000000  celldm(3)=   0.000000
     celldm(4)=   0.000000  celldm(5)=   0.000000  celldm(6)=   0.000000

     crystal axes: (cart. coord. in units of alat)
               a(1) = (   3.000000   0.000000   0.000000 )  
               a(2) = (   0.000000   3.000000   0.000000 )  
               a(3) = (   0.000000   0.000000   8.000000 )  

     reciprocal axes: (cart. coord. in units 2 pi/alat)
               b(1) = (  0.333333  0.000000  0.000000 )  
               b(2) = (  0.000000  0.333333  0.000000 )  
               b(3) = (  0.000000  0.000000  0.125000 )  


     PseudoPot. # 1 for Al read from file:
     ../../Pseudo/Al.pbe-n-kjpaw_psl.1.0.0.UPF
     MD5 check sum: dd5adf945272da8132fc805c9e56c2d6
     Pseudo is Projector augmented-wave + core cor, Zval =  3.0
     Generated using "atomic" code by A. Dal Corso  v.5.1
     Shape of augmentation charge: PSQ
     Using radial grid of 1135 points,  6 beta functions with: 
                l(1) =   0
                l(2) =   0
                l(3) =   1
                l(4) =   1
                l(5) =   2
                l(6) =   2
     Q(r) pseudized with 0 coefficients 


     PseudoPot. # 2 for O  read from file:
     ../../Pseudo/O.pbe-n-kjpaw_psl.0.1.UPF
     MD5 check sum: 0234752ac141de4415c5fc33072bef88
     Pseudo is Projector augmented-wave + core cor, Zval =  6.0
     Generated using "atomic" code by A. Dal Corso  v.5.0.99 svn rev. 10869
     Shape of augmentation charge: BESSEL
     Using radial grid of 1095 points,  4 beta functions with: 
                l(1) =   0
                l(2) =   0
                l(3) =   1
                l(4) =   1
     Q(r) pseudized with 0 coefficients 


     atomic species   valence    mass     pseudopotential
     Al                3.00     1.00000     Al( 1.00)
     O                 6.00     1.00000     O ( 1.00)

      8 Sym. Ops. (no inversion) found ( 6 have fractional translation)



   Cartesian axes

     site n.     atom                  positions (alat units)
         1        Al     tau(   1) = (   0.0000000   0.0000000   0.0000000  )
         2        Al     tau(   2) = (   0.0000000   1.0000000   0.0000000  )
         3        Al     tau(   3) = (   0.0000000   2.0000000   0.0000000  )
         4        Al     tau(   4) = (   1.0000000   0.0000000   0.0000000  )
         5        Al     tau(   5) = (   1.0000000   1.0000000   0.0000000  )
         6        Al     tau(   6) = (   1.0000000   2.0000000   0.0000000  )
         7        Al     tau(   7) = (   2.0000000   0.0000000   0.0000000  )
         8        Al     tau(   8) = (   2.0000000   1.0000000   0.0000000  )
         9        Al     tau(   9) = (   2.0000000   2.0000000   0.0000000  )
        10        Al     tau(  10) = (   0.5000000   0.5000000   0.7071068  )
        11        Al     tau(  11) = (   0.5000000   1.5000000   0.7071068  )
        12        Al     tau(  12) = (   0.5000000   2.5000000   0.7071068  )
        13        Al     tau(  13) = (   1.5000000   0.5000000   0.7071068  )
        14        Al     tau(  14) = (   1.5000000   1.5000000   0.7071068  )
        15        Al     tau(  15) = (   1.5000000   2.5000000   0.7071068  )
        16        Al     tau(  16) = (   2.5000000   0.5000000   0.7071068  )
        17        Al     tau(  17) = (   2.5000000   1.5000000   0.7071068  )
        18        Al     tau(  18) = (   2.5000000   2.5000000   0.7071068  )
        19        Al     tau(  19) = (   0.0000304  -0.0000304   1.3236373  )
        20        Al     tau(  20) = (   0.0029273   1.0000000   1.3333165  )
        21        Al     tau(  21) = (   0.0000304   2.0000304   1.3236337  )
        22        Al     tau(  22) = (   0.9999696  -0.0000304   1.3236337  )
        23        Al     tau(  23) = (   0.9970727   1.0000000   1.3333155  )
        24        Al     tau(  24) = (   0.9999696   2.0000304   1.3236328  )
        25        Al     tau(  25) = (   2.0000000  -0.0029273   1.3333165  )
        26        Al     tau(  26) = (   2.0000000   1.0000000   1.3215156  )
        27        Al     tau(  27) = (   2.0000000   2.0029273   1.3333155  )
        28        Al     tau(  28) = (   0.5000000   0.5063636   1.9555203  )
        29        Al     tau(  29) = (   0.5000000   1.4936364   1.9555191  )
        30        Al     tau(  30) = (   0.5000000   2.5000000   1.9313848  )
        31        Al     tau(  31) = (   1.4836717   0.4836717   1.9383617  )
        32        Al     tau(  32) = (   1.4836717   1.5163283   1.9383640  )
        33        Al     tau(  33) = (   1.5063636   2.5000000   1.9555191  )
        34        Al     tau(  34) = (   2.5163283   0.4836717   1.9383629  )
        35        Al     tau(  35) = (   2.5163283   1.5163283   1.9383617  )
        36        Al     tau(  36) = (   2.4936364   2.5000000   1.9555203  )
        37        O      tau(  37) = (   2.0000000   1.0000000   2.0468331  )

     number of k points=     3  Marzari-Vanderbilt smearing, width (Ry)=  0.0500
                       cart. coord. in units 2pi/alat
        k(    1) = (   0.0416667   0.0416667   0.0000000), wk =   0.5000000
        k(    2) = (   0.0416667   0.1250000   0.0000000), wk =   1.0000000
        k(    3) = (   0.1250000   0.1250000   0.0000000), wk =   0.5000000

     Dense  grid:  1092149 G-vectors     FFT dimensions: (  96,  96, 250)

     Smooth grid:   386353 G-vectors     FFT dimensions: (  72,  72, 180)

     Estimated max dynamical RAM per process >       2.74 GB

     Estimated total dynamical RAM >       7.70 GB

     Atomic positions and unit cell read from directory:
     ./tmp/Al.save/

     Message from routine read_rhog:
     Conversion: Gamma charge to K charge

     The initial density is read from file :
     ./tmp/Al.save/charge-density


     negative rho (up, down):  4.793E-04 0.000E+00
     Starting wfcs are  148 atomic wfcs
     Checking if some PAW data can be deallocated... 

     total cpu time spent up to now is       20.8 secs

     Self-consistent Calculation

     iteration #  1     ecut=    40.00 Ry     beta= 0.50
     Davidson diagonalization with overlap
     c_bands:  4 eigenvalues not converged
     ethr =  1.00E-05,  avg # of iterations = 20.0

     negative rho (up, down):  8.419E-03 0.000E+00

     total cpu time spent up to now is      105.3 secs

     total energy              =   -1462.96628606 Ry
     estimated scf accuracy    <       0.49351677 Ry

     iteration #  2     ecut=    40.00 Ry     beta= 0.50
     Davidson diagonalization with overlap
     ethr =  4.33E-04,  avg # of iterations =  1.0

     negative rho (up, down):  3.026E-02 0.000E+00

     total cpu time spent up to now is      133.9 secs

     total energy              =   -1462.94990866 Ry
     estimated scf accuracy    <       0.14646898 Ry

     iteration #  3     ecut=    40.00 Ry     beta= 0.50
     Davidson diagonalization with overlap
     ethr =  1.28E-04,  avg # of iterations =  3.0

     negative rho (up, down):  3.844E-02 0.000E+00

     total cpu time spent up to now is      164.8 secs

     total energy              =   -1462.96045662 Ry
     estimated scf accuracy    <       0.00607539 Ry

     iteration #  4     ecut=    40.00 Ry     beta= 0.50
     Davidson diagonalization with overlap
     ethr =  5.33E-06,  avg # of iterations = 18.0

     negative rho (up, down):  3.503E-02 0.000E+00

     total cpu time spent up to now is      216.9 secs

     total energy              =   -1462.96420283 Ry
     estimated scf accuracy    <       0.01658235 Ry

     iteration #  5     ecut=    40.00 Ry     beta= 0.50
     Davidson diagonalization with overlap
     ethr =  5.33E-06,  avg # of iterations =  5.0

     negative rho (up, down):  3.060E-02 0.000E+00

     total cpu time spent up to now is      248.5 secs

     total energy              =   -1462.96365878 Ry
     estimated scf accuracy    <       0.00322904 Ry

     iteration #  6     ecut=    40.00 Ry     beta= 0.50
     Davidson diagonalization with overlap
     ethr =  2.83E-06,  avg # of iterations =  5.0

     negative rho (up, down):  2.587E-02 0.000E+00

     total cpu time spent up to now is      283.7 secs

     total energy              =   -1462.96434212 Ry
     estimated scf accuracy    <       0.00207106 Ry

     iteration #  7     ecut=    40.00 Ry     beta= 0.50
     Davidson diagonalization with overlap
     ethr =  1.82E-06,  avg # of iterations =  1.7

     negative rho (up, down):  1.331E-02 0.000E+00

     total cpu time spent up to now is      309.2 secs

     total energy              =   -1462.96356012 Ry
     estimated scf accuracy    <       0.00246366 Ry

     iteration #  8     ecut=    40.00 Ry     beta= 0.50
     Davidson diagonalization with overlap
     ethr =  1.82E-06,  avg # of iterations =  2.0

     negative rho (up, down):  7.698E-03 0.000E+00

     total cpu time spent up to now is      334.3 secs

     total energy              =   -1462.96367195 Ry
     estimated scf accuracy    <       0.00010147 Ry

     iteration #  9     ecut=    40.00 Ry     beta= 0.50
     Davidson diagonalization with overlap
     ethr =  8.90E-08,  avg # of iterations =  8.3

     negative rho (up, down):  4.606E-03 0.000E+00

     total cpu time spent up to now is      372.6 secs

     total energy              =   -1462.96370619 Ry
     estimated scf accuracy    <       0.00100926 Ry

     iteration # 10     ecut=    40.00 Ry     beta= 0.50
     Davidson diagonalization with overlap
     ethr =  8.90E-08,  avg # of iterations =  2.0

     negative rho (up, down):  1.446E-03 0.000E+00

     total cpu time spent up to now is      398.1 secs

     total energy              =   -1462.96361589 Ry
     estimated scf accuracy    <       0.00043920 Ry

     iteration # 11     ecut=    40.00 Ry     beta= 0.50
     Davidson diagonalization with overlap
     ethr =  8.90E-08,  avg # of iterations =  4.7

     negative rho (up, down):  8.778E-04 0.000E+00

     total cpu time spent up to now is      426.6 secs

     total energy              =   -1462.96364350 Ry
     estimated scf accuracy    <       0.00000706 Ry

     iteration # 12     ecut=    40.00 Ry     beta= 0.50
     Davidson diagonalization with overlap
     ethr =  6.19E-09,  avg # of iterations =  9.0

     negative rho (up, down):  5.759E-04 0.000E+00

     total cpu time spent up to now is      462.9 secs

     total energy              =   -1462.96363907 Ry
     estimated scf accuracy    <       0.00005817 Ry

     iteration # 13     ecut=    40.00 Ry     beta= 0.50
     Davidson diagonalization with overlap
     ethr =  6.19E-09,  avg # of iterations =  5.7

     negative rho (up, down):  5.182E-04 0.000E+00

     total cpu time spent up to now is      494.3 secs

     total energy              =   -1462.96364538 Ry
     estimated scf accuracy    <       0.00000461 Ry

     iteration # 14     ecut=    40.00 Ry     beta= 0.50
     Davidson diagonalization with overlap
     ethr =  4.04E-09,  avg # of iterations =  1.0

     negative rho (up, down):  4.878E-04 0.000E+00

     total cpu time spent up to now is      518.2 secs

     total energy              =   -1462.96364504 Ry
     estimated scf accuracy    <       0.00000161 Ry

     iteration # 15     ecut=    40.00 Ry     beta= 0.50
     Davidson diagonalization with overlap
     c_bands:  1 eigenvalues not converged
     ethr =  1.41E-09,  avg # of iterations =  9.0

     negative rho (up, down):  4.853E-04 0.000E+00

     total cpu time spent up to now is      545.7 secs

     End of self-consistent calculation

          k = 0.0417 0.0417 0.0000 ( 48283 PWs)   bands (ev):

   -20.4500 -11.1049  -9.7031  -9.6538  -9.2196  -8.7960  -8.7441  -8.2851
    -8.1056  -7.8687  -7.5269  -7.3725  -7.2426  -6.9516  -6.8821  -6.6124
    -6.4523  -6.3753  -5.8973  -5.6928  -5.4657  -5.3089  -4.9867  -4.9637
    -4.4919  -4.4447  -4.2306  -4.1415  -3.8361  -3.7215  -3.6263  -3.0166
    -2.9283  -2.9031  -2.8327  -2.5669  -2.5383  -2.4837  -2.3519  -2.1804
    -2.0312  -1.9524  -1.7900  -1.5967  -1.3500  -1.3257  -1.2035  -1.1773
    -1.0807  -0.9309  -0.7382  -0.6607  -0.4941  -0.4433  -0.1821  -0.0834
    -0.0317   0.0211   0.0807   0.1841   0.2760   0.3487   0.5162   0.6941
     0.8670   0.8795   0.9646   1.0718

          k = 0.0417 0.1250 0.0000 ( 48328 PWs)   bands (ev):

   -20.4500 -10.8668 -10.3798  -9.4451  -9.0747  -8.9288  -8.5872  -8.5042
    -8.1178  -7.7798  -7.6957  -7.3390  -7.0565  -6.8727  -6.5977  -6.3330
    -6.2454  -6.1123  -5.9338  -5.7909  -5.5245  -5.2614  -5.0677  -4.7686
    -4.6483  -4.4665  -4.1707  -4.0502  -4.0307  -3.7989  -3.7124  -3.4766
    -3.4357  -3.3374  -3.1887  -2.9350  -2.7430  -2.5796  -2.2442  -2.1312
    -1.9282  -1.9202  -1.8775  -1.7449  -1.5830  -1.3762  -1.1999  -1.0645
    -1.0272  -0.8227  -0.6698  -0.5114  -0.4438  -0.3041  -0.2855  -0.1564
    -0.0070   0.2204   0.2543   0.3979   0.6513   0.6898   0.7941   0.8505
     1.0884   1.1948   1.2628   1.4268

          k = 0.1250 0.1250 0.0000 ( 48243 PWs)   bands (ev):

   -20.4499 -10.6278 -10.1903 -10.0942  -9.6714  -8.7960  -8.5066  -8.2068
    -8.0471  -7.5866  -7.5214  -7.0940  -6.8966  -6.7915  -6.4625  -6.3228
    -6.0204  -5.8998  -5.8321  -5.6732  -5.5660  -5.3766  -5.3380  -5.2110
    -5.0698  -4.8954  -4.6220  -4.3298  -3.8200  -3.7542  -3.6754  -3.4539
    -3.2365  -3.0859  -2.9458  -2.8619  -2.8266  -2.7874  -2.6547  -2.3710
    -2.3127  -2.1415  -1.8954  -1.5492  -1.5196  -1.3175  -1.2558  -0.8734
    -0.8587  -0.8333  -0.4994  -0.4803  -0.2972  -0.2050  -0.1392  -0.1083
     0.0197   0.1165   0.3011   0.4514   0.6369   0.6401   0.8871   1.0605
     1.1783   1.3671   1.3822   1.5270

     the Fermi energy is     0.0815 ev

!    total energy              =   -1462.96365671 Ry
     total all-electron energy =    -17632.950686 Ry
     estimated scf accuracy    <       0.00000006 Ry
     smearing contrib. (-TS)   =      -0.01650553 Ry
     internal energy E=F+TS    =   -1462.94715118 Ry

     The total energy is F=E-TS. E is the sum of the following terms:
     one-electron contribution =   -1911.71980338 Ry
     hartree contribution      =     984.55310746 Ry
     xc contribution           =    -100.24003251 Ry
     ewald contribution        =     822.65840821 Ry
     one-center paw contrib.   =   -1258.19883097 Ry

     convergence has been achieved in  15 iterations

     negative rho (up, down):  4.853E-04 0.000E+00

     Forces acting on atoms (cartesian axes, Ry/au):

     atom    1 type  1   force =    -0.00015573    0.00015573   -0.00569732
     atom    2 type  1   force =     0.00198267   -0.00000000   -0.00566768
     atom    3 type  1   force =    -0.00015573   -0.00015573   -0.00569732
     atom    4 type  1   force =     0.00015573    0.00015573   -0.00569732
     atom    5 type  1   force =    -0.00198267   -0.00000000   -0.00566768
     atom    6 type  1   force =     0.00015573   -0.00015573   -0.00569732
     atom    7 type  1   force =    -0.00000000   -0.00198267   -0.00566768
     atom    8 type  1   force =     0.00000000    0.00000000   -0.00500290
     atom    9 type  1   force =     0.00000000    0.00198267   -0.00566768
     atom   10 type  1   force =    -0.00000000    0.00123500   -0.03358013
     atom   11 type  1   force =    -0.00000000   -0.00123500   -0.03358013
     atom   12 type  1   force =     0.00000000    0.00000000   -0.03127950
     atom   13 type  1   force =    -0.00080149   -0.00080149   -0.03159407
     atom   14 type  1   force =    -0.00080149    0.00080149   -0.03159407
     atom   15 type  1   force =     0.00123500    0.00000000   -0.03358013
     atom   16 type  1   force =     0.00080149   -0.00080149   -0.03159407
     atom   17 type  1   force =     0.00080149    0.00080149   -0.03159407
     atom   18 type  1   force =    -0.00123500   -0.00000000   -0.03358013
     atom   19 type  1   force =     0.00467217   -0.00467217   -0.00376657
     atom   20 type  1   force =    -0.00156967    0.00000000   -0.00067512
     atom   21 type  1   force =     0.00467217    0.00467217   -0.00376657
     atom   22 type  1   force =    -0.00467217   -0.00467217   -0.00376657
     atom   23 type  1   force =     0.00156967   -0.00000000   -0.00067512
     atom   24 type  1   force =    -0.00467217    0.00467217   -0.00376657
     atom   25 type  1   force =     0.00000000    0.00156967   -0.00067512
     atom   26 type  1   force =     0.00000000    0.00000000   -0.00213456
     atom   27 type  1   force =    -0.00000000   -0.00156967   -0.00067512
     atom   28 type  1   force =     0.00000000   -0.00436834    0.03942169
     atom   29 type  1   force =     0.00000000    0.00436834    0.03942169
     atom   30 type  1   force =     0.00000000    0.00000000    0.04185614
     atom   31 type  1   force =     0.00048203    0.00048203    0.03802885
     atom   32 type  1   force =     0.00048203   -0.00048203    0.03802885
     atom   33 type  1   force =    -0.00436834    0.00000000    0.03942169
     atom   34 type  1   force =    -0.00048203    0.00048203    0.03802885
     atom   35 type  1   force =    -0.00048203   -0.00048203    0.03802885
     atom   36 type  1   force =     0.00436834    0.00000000    0.03942169
     atom   37 type  2   force =     0.00000000    0.00000000    0.01068230

     Total force =     0.119134     Total SCF correction =     0.000147

     BFGS Geometry Optimization
     Energy error            =      0.0E+00 Ry
     Gradient error          =      4.2E-02 Ry/Bohr

     number of scf cycles    =   1
     number of bfgs steps    =   0

     energy             new  =   -1462.9636567116 Ry

     new trust radius        =       0.0418561436 bohr
     new conv_thr            =       0.0000001000 Ry


ATOMIC_POSITIONS (alat)
Al               0.0000000000        0.0000000000        0.0000000000    0   0   0
Al               0.0000000000        0.9999999968        0.0000000000    0   0   0
Al               0.0000000000        1.9999999938        0.0000000000    0   0   0
Al               0.9999999968        0.0000000000        0.0000000000    0   0   0
Al               0.9999999968        0.9999999968        0.0000000000    0   0   0
Al               0.9999999968        1.9999999938        0.0000000000    0   0   0
Al               1.9999999938        0.0000000000        0.0000000000    0   0   0
Al               1.9999999938        0.9999999968        0.0000000000    0   0   0
Al               1.9999999938        1.9999999938        0.0000000000    0   0   0
Al               0.4999999984        0.4999999984        0.7071067668    0   0   0
Al               0.4999999984        1.4999999954        0.7071067668    0   0   0
Al               0.4999999984        2.4999999922        0.7071067668    0   0   0
Al               1.4999999954        0.4999999984        0.7071067668    0   0   0
Al               1.4999999954        1.4999999954        0.7071067668    0   0   0
Al               1.4999999954        2.4999999922        0.7071067668    0   0   0
Al               2.4999999922        0.4999999984        0.7071067668    0   0   0
Al               2.4999999922        1.4999999954        0.7071067668    0   0   0
Al               2.4999999922        2.4999999922        0.7071067668    0   0   0
Al               0.0008964822       -0.0008964822        1.3229391012
Al               0.0026363016        0.9999999968        1.3331913025
Al               0.0008964822        2.0008964760        1.3229355055
Al               0.9991035147       -0.0008964822        1.3229355055
Al               0.9973636953        0.9999999968        1.3331903438
Al               0.9991035147        2.0008964760        1.3229345468
Al               1.9999999938       -0.0026363016        1.3331913025
Al               1.9999999938        0.9999999968        1.3211198962
Al               1.9999999938        2.0026362954        1.3331903438
Al               0.4999999984        0.5055538158        1.9628281848
Al               0.4999999984        1.4944461780        1.9628269968
Al               0.4999999984        2.4999999922        1.9391440051
Al               1.4837610172        0.4837610203        1.9454113784
Al               1.4837610172        1.5162389735        1.9454136359
Al               1.5055538127        2.4999999922        1.9628269968
Al               2.5162389704        0.4837610203        1.9454125664
Al               2.5162389704        1.5162389735        1.9454113784
Al               2.4944461749        2.4999999922        1.9628281848
O                1.9999999985        0.9999999992        2.0488133415    0   0   1



     Writing config-only to output data dir ./tmp/Al.save/ :
     XML data file
     NEW-OLD atomic charge density approx. for the potential

     negative rho (up, down):  4.816E-04 0.000E+00

     total cpu time spent up to now is      567.6 secs

     Self-consistent Calculation

     iteration #  1     ecut=    40.00 Ry     beta= 0.50
     Davidson diagonalization with overlap
     ethr =  1.00E-06,  avg # of iterations =  8.3

     negative rho (up, down):  4.974E-04 0.000E+00

     total cpu time spent up to now is      607.9 secs

     total energy              =   -1462.97722926 Ry
     estimated scf accuracy    <       0.00121996 Ry

     iteration #  2     ecut=    40.00 Ry     beta= 0.50
     Davidson diagonalization with overlap
     ethr =  1.07E-06,  avg # of iterations =  1.3

     negative rho (up, down):  6.233E-04 0.000E+00

     total cpu time spent up to now is      632.0 secs

     total energy              =   -1462.97705754 Ry
     estimated scf accuracy    <       0.00055747 Ry

     iteration #  3     ecut=    40.00 Ry     beta= 0.50
     Davidson diagonalization with overlap
     ethr =  4.89E-07,  avg # of iterations =  3.0

     negative rho (up, down):  6.174E-04 0.000E+00

     total cpu time spent up to now is      659.6 secs

     total energy              =   -1462.97717622 Ry
     estimated scf accuracy    <       0.00005404 Ry

     iteration #  4     ecut=    40.00 Ry     beta= 0.50
     Davidson diagonalization with overlap
     ethr =  4.74E-08,  avg # of iterations =  8.7

     negative rho (up, down):  6.185E-04 0.000E+00

     total cpu time spent up to now is      690.1 secs

     total energy              =   -1462.97718399 Ry
     estimated scf accuracy    <       0.00001572 Ry

     iteration #  5     ecut=    40.00 Ry     beta= 0.50
     Davidson diagonalization with overlap
     ethr =  1.38E-08,  avg # of iterations =  3.7

     negative rho (up, down):  6.438E-04 0.000E+00

     total cpu time spent up to now is      716.4 secs

     total energy              =   -1462.97718470 Ry
     estimated scf accuracy    <       0.00000907 Ry

     iteration #  6     ecut=    40.00 Ry     beta= 0.50
     Davidson diagonalization with overlap
     ethr =  7.96E-09,  avg # of iterations =  4.0

     negative rho (up, down):  6.376E-04 0.000E+00

     total cpu time spent up to now is      742.1 secs

     total energy              =   -1462.97718544 Ry
     estimated scf accuracy    <       0.00000057 Ry

     iteration #  7     ecut=    40.00 Ry     beta= 0.50
     Davidson diagonalization with overlap
     ethr =  4.99E-10,  avg # of iterations = 11.3

     negative rho (up, down):  6.351E-04 0.000E+00

     total cpu time spent up to now is      778.2 secs

     total energy              =   -1462.97718589 Ry
     estimated scf accuracy    <       0.00000108 Ry

     iteration #  8     ecut=    40.00 Ry     beta= 0.50
     Davidson diagonalization with overlap
     ethr =  4.99E-10,  avg # of iterations =  1.0

     negative rho (up, down):  6.131E-04 0.000E+00

     total cpu time spent up to now is      801.9 secs

     total energy              =   -1462.97718573 Ry
     estimated scf accuracy    <       0.00000098 Ry

     iteration #  9     ecut=    40.00 Ry     beta= 0.50
     Davidson diagonalization with overlap
     ethr =  4.99E-10,  avg # of iterations =  2.0

     negative rho (up, down):  5.449E-04 0.000E+00

     total cpu time spent up to now is      826.8 secs

     total energy              =   -1462.97718573 Ry
     estimated scf accuracy    <       0.00000020 Ry

     iteration # 10     ecut=    40.00 Ry     beta= 0.50
     Davidson diagonalization with overlap
     ethr =  1.74E-10,  avg # of iterations =  6.7

     negative rho (up, down):  5.386E-04 0.000E+00

     total cpu time spent up to now is      858.4 secs

     total energy              =   -1462.97718581 Ry
     estimated scf accuracy    <       0.00000144 Ry

     iteration # 11     ecut=    40.00 Ry     beta= 0.50
     Davidson diagonalization with overlap
     ethr =  1.74E-10,  avg # of iterations =  1.7

     negative rho (up, down):  5.182E-04 0.000E+00

     total cpu time spent up to now is      883.7 secs

     total energy              =   -1462.97718567 Ry
     estimated scf accuracy    <       0.00000089 Ry

     iteration # 12     ecut=    40.00 Ry     beta= 0.50
     Davidson diagonalization with overlap
     ethr =  1.74E-10,  avg # of iterations =  5.0

     negative rho (up, down):  5.047E-04 0.000E+00

     total cpu time spent up to now is      930.0 secs

     total energy              =   -1462.97718584 Ry
     estimated scf accuracy    <       0.00000024 Ry

     iteration # 13     ecut=    40.00 Ry     beta= 0.50
     Davidson diagonalization with overlap
     ethr =  1.74E-10,  avg # of iterations =  1.0

     negative rho (up, down):  4.900E-04 0.000E+00

     total cpu time spent up to now is      962.5 secs

     total energy              =   -1462.97718577 Ry
     estimated scf accuracy    <       0.00000029 Ry

     iteration # 14     ecut=    40.00 Ry     beta= 0.50
     Davidson diagonalization with overlap
     ethr =  1.74E-10,  avg # of iterations =  2.0

     negative rho (up, down):  4.848E-04 0.000E+00

     total cpu time spent up to now is      994.0 secs

     End of self-consistent calculation

          k = 0.0417 0.0417 0.0000 ( 48283 PWs)   bands (ev):

   -20.4576 -11.0835  -9.6763  -9.6343  -9.2025  -8.7786  -8.7185  -8.2664
    -8.1006  -7.8603  -7.5090  -7.3677  -7.2223  -6.9381  -6.8837  -6.6033
    -6.4477  -6.3543  -5.8881  -5.6874  -5.4661  -5.3085  -4.9725  -4.9493
    -4.4837  -4.4401  -4.2186  -4.1323  -3.8289  -3.7210  -3.6338  -2.9957
    -2.9242  -2.8934  -2.8185  -2.5562  -2.5168  -2.4731  -2.3402  -2.1732
    -2.0267  -1.9564  -1.7890  -1.5802  -1.3646  -1.3314  -1.2089  -1.1600
    -1.0613  -0.9355  -0.7223  -0.6547  -0.4829  -0.4250  -0.1831  -0.0791
    -0.0279   0.0098   0.0773   0.1819   0.2969   0.3398   0.5216   0.6929
     0.8638   0.8733   0.9493   1.0671

          k = 0.0417 0.1250 0.0000 ( 48328 PWs)   bands (ev):

   -20.4575 -10.8451 -10.3573  -9.4221  -9.0560  -8.9102  -8.5696  -8.4878
    -8.1017  -7.7682  -7.6866  -7.3270  -7.0536  -6.8625  -6.6004  -6.3178
    -6.2290  -6.1136  -5.9130  -5.7776  -5.5154  -5.2495  -5.0650  -4.7603
    -4.6407  -4.4527  -4.1578  -4.0425  -4.0151  -3.7821  -3.6978  -3.4732
    -3.4429  -3.3289  -3.1852  -2.9420  -2.7283  -2.5652  -2.2366  -2.1198
    -1.9199  -1.9164  -1.8665  -1.7401  -1.5806  -1.3744  -1.1987  -1.0745
    -1.0438  -0.8244  -0.6808  -0.5089  -0.4312  -0.2991  -0.2769  -0.1525
    -0.0066   0.2207   0.2510   0.3869   0.6534   0.6893   0.7910   0.8540
     1.0937   1.1875   1.2550   1.4466

          k = 0.1250 0.1250 0.0000 ( 48243 PWs)   bands (ev):

   -20.4575 -10.6057 -10.1634 -10.0764  -9.6490  -8.7829  -8.4984  -8.1908
    -8.0409  -7.5716  -7.5041  -7.0739  -6.8862  -6.7739  -6.4518  -6.3257
    -6.0114  -5.8961  -5.8363  -5.6587  -5.5548  -5.3714  -5.3188  -5.1862
    -5.0583  -4.8864  -4.6057  -4.3169  -3.8019  -3.7381  -3.6644  -3.4356
    -3.2486  -3.0830  -2.9376  -2.8585  -2.8236  -2.7940  -2.6655  -2.3703
    -2.3148  -2.1450  -1.8753  -1.5521  -1.5230  -1.2998  -1.2534  -0.8797
    -0.8431  -0.8302  -0.4975  -0.4942  -0.3096  -0.1841  -0.1283  -0.0916
     0.0071   0.1061   0.2879   0.4508   0.6241   0.6467   0.8834   1.0605
     1.1899   1.3763   1.3777   1.5270

     the Fermi energy is     0.0832 ev

!    total energy              =   -1462.97718579 Ry
     total all-electron energy =    -17632.964215 Ry
     estimated scf accuracy    <       0.00000001 Ry
     smearing contrib. (-TS)   =      -0.01794934 Ry
     internal energy E=F+TS    =   -1462.95923645 Ry

     The total energy is F=E-TS. E is the sum of the following terms:
     one-electron contribution =   -1906.28401080 Ry
     hartree contribution      =     981.83092363 Ry
     xc contribution           =    -100.18205623 Ry
     ewald contribution        =     819.86269214 Ry
     one-center paw contrib.   =   -1258.18678518 Ry

     convergence has been achieved in  14 iterations

     negative rho (up, down):  4.848E-04 0.000E+00

     Forces acting on atoms (cartesian axes, Ry/au):

     atom    1 type  1   force =    -0.00018209    0.00018209   -0.00587158
     atom    2 type  1   force =     0.00203474   -0.00000000   -0.00576537
     atom    3 type  1   force =    -0.00018209   -0.00018209   -0.00587158
     atom    4 type  1   force =     0.00018209    0.00018209   -0.00587158
     atom    5 type  1   force =    -0.00203474   -0.00000000   -0.00576537
     atom    6 type  1   force =     0.00018209   -0.00018209   -0.00587158
     atom    7 type  1   force =    -0.00000000   -0.00203474   -0.00576537
     atom    8 type  1   force =     0.00000000    0.00000000   -0.00500423
     atom    9 type  1   force =     0.00000000    0.00203474   -0.00576537
     atom   10 type  1   force =     0.00000000    0.00139758   -0.03363576
     atom   11 type  1   force =     0.00000000   -0.00139758   -0.03363576
     atom   12 type  1   force =     0.00000000    0.00000000   -0.03240858
     atom   13 type  1   force =    -0.00083385   -0.00083385   -0.03169262
     atom   14 type  1   force =    -0.00083385    0.00083385   -0.03169262
     atom   15 type  1   force =     0.00139758    0.00000000   -0.03363576
     atom   16 type  1   force =     0.00083385   -0.00083385   -0.03169262
     atom   17 type  1   force =     0.00083385    0.00083385   -0.03169262
     atom   18 type  1   force =    -0.00139758    0.00000000   -0.03363576
     atom   19 type  1   force =     0.00363993   -0.00363993    0.00012722
     atom   20 type  1   force =    -0.00106694    0.00000000    0.00301112
     atom   21 type  1   force =     0.00363993    0.00363993    0.00012722
     atom   22 type  1   force =    -0.00363993   -0.00363993    0.00012722
     atom   23 type  1   force =     0.00106694    0.00000000    0.00301112
     atom   24 type  1   force =    -0.00363993    0.00363993    0.00012722
     atom   25 type  1   force =     0.00000000    0.00106694    0.00301112
     atom   26 type  1   force =     0.00000000    0.00000000    0.00068486
     atom   27 type  1   force =     0.00000000   -0.00106694    0.00301112
     atom   28 type  1   force =    -0.00000000   -0.00350326    0.03605629
     atom   29 type  1   force =     0.00000000    0.00350326    0.03605629
     atom   30 type  1   force =     0.00000000    0.00000000    0.03883596
     atom   31 type  1   force =    -0.00042696   -0.00042696    0.03453730
     atom   32 type  1   force =    -0.00042696    0.00042696    0.03453730
     atom   33 type  1   force =    -0.00350326    0.00000000    0.03605629
     atom   34 type  1   force =     0.00042696   -0.00042696    0.03453730
     atom   35 type  1   force =     0.00042696    0.00042696    0.03453730
     atom   36 type  1   force =     0.00350326   -0.00000000    0.03605629
     atom   37 type  2   force =     0.00000000    0.00000000    0.01082562

     Total force =     0.108604     Total SCF correction =     0.000137
     Energy error            =      1.4E-02 Ry
     Gradient error          =      3.9E-02 Ry/Bohr

     number of scf cycles    =   2
     number of bfgs steps    =   1

     energy             old  =   -1462.9636567116 Ry
     energy             new  =   -1462.9771857900 Ry

     CASE: energy            _new < energy            _old


     WARNING: bfgs curvature condition failed, Theta= 0.882
     new trust radius        =       0.0460417580 bohr
     new conv_thr            =       0.0000000388 Ry


ATOMIC_POSITIONS (alat)
Al               0.0000000000        0.0000000000        0.0000000000    0   0   0
Al               0.0000000000        0.9999999968        0.0000000000    0   0   0
Al               0.0000000000        1.9999999938        0.0000000000    0   0   0
Al               0.9999999968        0.0000000000        0.0000000000    0   0   0
Al               0.9999999968        0.9999999968        0.0000000000    0   0   0
Al               0.9999999968        1.9999999938        0.0000000000    0   0   0
Al               1.9999999938        0.0000000000        0.0000000000    0   0   0
Al               1.9999999938        0.9999999968        0.0000000000    0   0   0
Al               1.9999999938        1.9999999938        0.0000000000    0   0   0
Al               0.4999999984        0.4999999984        0.7071067668    0   0   0
Al               0.4999999984        1.4999999954        0.7071067668    0   0   0
Al               0.4999999984        2.4999999922        0.7071067668    0   0   0
Al               1.4999999954        0.4999999984        0.7071067668    0   0   0
Al               1.4999999954        1.4999999954        0.7071067668    0   0   0
Al               1.4999999954        2.4999999922        0.7071067668    0   0   0
Al               2.4999999922        0.4999999984        0.7071067668    0   0   0
Al               2.4999999922        1.4999999954        0.7071067668    0   0   0
Al               2.4999999922        2.4999999922        0.7071067668    0   0   0
Al               0.0017068696       -0.0017068696        1.3229127171
Al               0.0023959734        0.9999999968        1.3337984876
Al               0.0017068696        2.0017068634        1.3229091214
Al               0.9982931273       -0.0017068696        1.3229091214
Al               0.9976040235        0.9999999968        1.3337975289
Al               0.9982931273        2.0017068634        1.3229081627
Al               1.9999999938       -0.0023959734        1.3337984876
Al               1.9999999938        0.9999999968        1.3212304202
Al               1.9999999938        2.0023959672        1.3337975289
Al               0.4999999984        0.5047756457        1.9707601871
Al               0.4999999984        1.4952243481        1.9707589991
Al               0.4999999984        2.4999999922        1.9476790885
Al               1.4836802988        0.4836803019        1.9530129500
Al               1.4836802988        1.5163196919        1.9530152075
Al               1.5047756426        2.4999999922        1.9707589991
Al               2.5163196888        0.4836803019        1.9530141380
Al               2.5163196888        1.5163196919        1.9530129500
Al               2.4952243450        2.4999999922        1.9707601871
O                1.9999999985        0.9999999992        2.0511788026    0   0   1



     Writing config-only to output data dir ./tmp/Al.save/ :
     XML data file
     NEW-OLD atomic charge density approx. for the potential

     negative rho (up, down):  4.809E-04 0.000E+00

     total cpu time spent up to now is     1021.0 secs

     Self-consistent Calculation

     iteration #  1     ecut=    40.00 Ry     beta= 0.50
     Davidson diagonalization with overlap
     ethr =  1.00E-06,  avg # of iterations =  8.0

     negative rho (up, down):  5.074E-04 0.000E+00

     total cpu time spent up to now is     1078.2 secs

     total energy              =   -1462.99060905 Ry
     estimated scf accuracy    <       0.00145609 Ry

     iteration #  2     ecut=    40.00 Ry     beta= 0.50
     Davidson diagonalization with overlap
     ethr =  1.28E-06,  avg # of iterations =  1.0

     negative rho (up, down):  6.570E-04 0.000E+00

     total cpu time spent up to now is     1111.4 secs

     total energy              =   -1462.99041970 Ry
     estimated scf accuracy    <       0.00064947 Ry

     iteration #  3     ecut=    40.00 Ry     beta= 0.50
     Davidson diagonalization with overlap
     ethr =  5.70E-07,  avg # of iterations =  3.3

     negative rho (up, down):  6.488E-04 0.000E+00

     total cpu time spent up to now is     1150.3 secs

     total energy              =   -1462.99055460 Ry
     estimated scf accuracy    <       0.00006095 Ry

     iteration #  4     ecut=    40.00 Ry     beta= 0.50
     Davidson diagonalization with overlap
     ethr =  5.35E-08,  avg # of iterations =  8.7

     negative rho (up, down):  6.437E-04 0.000E+00

     total cpu time spent up to now is     1195.6 secs

     total energy              =   -1462.99056188 Ry
     estimated scf accuracy    <       0.00001475 Ry

     iteration #  5     ecut=    40.00 Ry     beta= 0.50
     Davidson diagonalization with overlap
     ethr =  1.29E-08,  avg # of iterations =  5.3

     negative rho (up, down):  6.523E-04 0.000E+00

     total cpu time spent up to now is     1234.2 secs

     total energy              =   -1462.99056363 Ry
     estimated scf accuracy    <       0.00000585 Ry

     iteration #  6     ecut=    40.00 Ry     beta= 0.50
     Davidson diagonalization with overlap
     ethr =  5.13E-09,  avg # of iterations =  4.7

     negative rho (up, down):  6.422E-04 0.000E+00

     total cpu time spent up to now is     1272.4 secs

     total energy              =   -1462.99056440 Ry
     estimated scf accuracy    <       0.00000072 Ry

     iteration #  7     ecut=    40.00 Ry     beta= 0.50
     Davidson diagonalization with overlap
     ethr =  6.31E-10,  avg # of iterations =  9.7

     negative rho (up, down):  6.388E-04 0.000E+00

     total cpu time spent up to now is     1317.5 secs

     total energy              =   -1462.99056463 Ry
     estimated scf accuracy    <       0.00000132 Ry

     iteration #  8     ecut=    40.00 Ry     beta= 0.50
     Davidson diagonalization with overlap
     ethr =  6.31E-10,  avg # of iterations =  1.0

     negative rho (up, down):  5.641E-04 0.000E+00

     total cpu time spent up to now is     1351.4 secs

     total energy              =   -1462.99056418 Ry
     estimated scf accuracy    <       0.00000120 Ry

     iteration #  9     ecut=    40.00 Ry     beta= 0.50
     Davidson diagonalization with overlap
     ethr =  6.31E-10,  avg # of iterations =  4.7

     negative rho (up, down):  5.473E-04 0.000E+00

     total cpu time spent up to now is     1392.3 secs

     total energy              =   -1462.99056461 Ry
     estimated scf accuracy    <       0.00000189 Ry

     iteration # 10     ecut=    40.00 Ry     beta= 0.50
     Davidson diagonalization with overlap
     ethr =  6.31E-10,  avg # of iterations =  1.0

     negative rho (up, down):  5.411E-04 0.000E+00

     total cpu time spent up to now is     1424.7 secs

     total energy              =   -1462.99056441 Ry
     estimated scf accuracy    <       0.00000135 Ry

     iteration # 11     ecut=    40.00 Ry     beta= 0.50
     Davidson diagonalization with overlap
     ethr =  6.31E-10,  avg # of iterations =  2.0

     negative rho (up, down):  5.141E-04 0.000E+00

     total cpu time spent up to now is     1460.7 secs

     total energy              =   -1462.99056446 Ry
     estimated scf accuracy    <       0.00000012 Ry

     iteration # 12     ecut=    40.00 Ry     beta= 0.50
     Davidson diagonalization with overlap
     ethr =  1.02E-10,  avg # of iterations =  8.3

     negative rho (up, down):  5.042E-04 0.000E+00

     total cpu time spent up to now is     1508.1 secs

     total energy              =   -1462.99056452 Ry
     estimated scf accuracy    <       0.00000057 Ry

     iteration # 13     ecut=    40.00 Ry     beta= 0.50
     Davidson diagonalization with overlap
     ethr =  1.02E-10,  avg # of iterations =  1.7

     negative rho (up, down):  5.019E-04 0.000E+00

     total cpu time spent up to now is     1542.8 secs

     total energy              =   -1462.99056452 Ry
     estimated scf accuracy    <       0.00000029 Ry

     iteration # 14     ecut=    40.00 Ry     beta= 0.50
     Davidson diagonalization with overlap
     ethr =  1.02E-10,  avg # of iterations =  1.0

     negative rho (up, down):  4.969E-04 0.000E+00

     total cpu time spent up to now is     1575.9 secs

     total energy              =   -1462.99056449 Ry
     estimated scf accuracy    <       0.00000017 Ry

     iteration # 15     ecut=    40.00 Ry     beta= 0.50
     Davidson diagonalization with overlap
     ethr =  1.02E-10,  avg # of iterations =  4.0

     negative rho (up, down):  4.843E-04 0.000E+00

     total cpu time spent up to now is     1605.7 secs

     End of self-consistent calculation

          k = 0.0417 0.0417 0.0000 ( 48283 PWs)   bands (ev):

   -20.4592 -11.0594  -9.6472  -9.6119  -9.1850  -8.7577  -8.6905  -8.2450
    -8.0932  -7.8500  -7.4892  -7.3604  -7.1989  -6.9229  -6.8848  -6.5925
    -6.4402  -6.3313  -5.8768  -5.6802  -5.4665  -5.3072  -4.9578  -4.9345
    -4.4754  -4.4354  -4.2044  -4.1193  -3.8207  -3.7208  -3.6407  -2.9774
    -2.9194  -2.8786  -2.8016  -2.5464  -2.4922  -2.4616  -2.3267  -2.1661
    -2.0206  -1.9593  -1.7867  -1.5621  -1.3804  -1.3369  -1.2149  -1.1421
    -1.0394  -0.9405  -0.7058  -0.6478  -0.4716  -0.4062  -0.1849  -0.0765
    -0.0292   0.0039   0.0737   0.1829   0.3193   0.3307   0.5296   0.6928
     0.8475   0.8785   0.9349   1.0636

          k = 0.0417 0.1250 0.0000 ( 48328 PWs)   bands (ev):

   -20.4592 -10.8207 -10.3321  -9.3965  -9.0364  -8.8892  -8.5515  -8.4680
    -8.0828  -7.7541  -7.6750  -7.3123  -7.0474  -6.8508  -6.6027  -6.3016
    -6.2108  -6.1140  -5.8903  -5.7617  -5.5047  -5.2368  -5.0608  -4.7494
    -4.6329  -4.4362  -4.1477  -4.0299  -3.9991  -3.7639  -3.6816  -3.4741
    -3.4442  -3.3180  -3.1810  -2.9499  -2.7127  -2.5500  -2.2288  -2.1081
    -1.9156  -1.9109  -1.8511  -1.7344  -1.5775  -1.3721  -1.1972  -1.0849
    -1.0607  -0.8262  -0.6927  -0.5102  -0.4148  -0.2928  -0.2658  -0.1483
    -0.0058   0.2204   0.2483   0.3766   0.6552   0.6882   0.7857   0.8641
     1.0960   1.1818   1.2474   1.4687

          k = 0.1250 0.1250 0.0000 ( 48243 PWs)   bands (ev):

   -20.4592 -10.5810 -10.1342 -10.0555  -9.6238  -8.7692  -8.4888  -8.1740
    -8.0324  -7.5537  -7.4845  -7.0508  -6.8736  -6.7528  -6.4380  -6.3276
    -6.0002  -5.8920  -5.8399  -5.6414  -5.5404  -5.3645  -5.2993  -5.1591
    -5.0461  -4.8748  -4.5885  -4.3032  -3.7814  -3.7213  -3.6522  -3.4172
    -3.2617  -3.0811  -2.9281  -2.8593  -2.8152  -2.7991  -2.6770  -2.3702
    -2.3159  -2.1487  -1.8531  -1.5549  -1.5258  -1.2808  -1.2510  -0.8955
    -0.8269  -0.8164  -0.5091  -0.4936  -0.3244  -0.1602  -0.1143  -0.0720
    -0.0057   0.0952   0.2740   0.4510   0.6106   0.6533   0.8796   1.0608
     1.2003   1.3728   1.3866   1.5281

     the Fermi energy is     0.0856 ev

!    total energy              =   -1462.99056449 Ry
     total all-electron energy =    -17632.977594 Ry
     estimated scf accuracy    <       0.00000002 Ry
     smearing contrib. (-TS)   =      -0.01945113 Ry
     internal energy E=F+TS    =   -1462.97111336 Ry

     The total energy is F=E-TS. E is the sum of the following terms:
     one-electron contribution =   -1900.19038613 Ry
     hartree contribution      =     978.77540023 Ry
     xc contribution           =    -100.11964482 Ry
     ewald contribution        =     816.73775873 Ry
     one-center paw contrib.   =   -1258.17424137 Ry

     convergence has been achieved in  15 iterations

     negative rho (up, down):  4.843E-04 0.000E+00

     Forces acting on atoms (cartesian axes, Ry/au):

     atom    1 type  1   force =    -0.00020824    0.00020824   -0.00604690
     atom    2 type  1   force =     0.00209511    0.00000000   -0.00585954
     atom    3 type  1   force =    -0.00020824   -0.00020824   -0.00604690
     atom    4 type  1   force =     0.00020824    0.00020824   -0.00604690
     atom    5 type  1   force =    -0.00209511   -0.00000000   -0.00585954
     atom    6 type  1   force =     0.00020824   -0.00020824   -0.00604690
     atom    7 type  1   force =     0.00000000   -0.00209511   -0.00585954
     atom    8 type  1   force =     0.00000000    0.00000000   -0.00500270
     atom    9 type  1   force =    -0.00000000    0.00209511   -0.00585954
     atom   10 type  1   force =     0.00000000    0.00155874   -0.03338495
     atom   11 type  1   force =     0.00000000   -0.00155874   -0.03338495
     atom   12 type  1   force =     0.00000000    0.00000000   -0.03320076
     atom   13 type  1   force =    -0.00087675   -0.00087675   -0.03151042
     atom   14 type  1   force =    -0.00087675    0.00087675   -0.03151042
     atom   15 type  1   force =     0.00155874    0.00000000   -0.03338495
     atom   16 type  1   force =     0.00087675   -0.00087675   -0.03151042
     atom   17 type  1   force =     0.00087675    0.00087675   -0.03151042
     atom   18 type  1   force =    -0.00155874    0.00000000   -0.03338495
     atom   19 type  1   force =     0.00273918   -0.00273918    0.00354010
     atom   20 type  1   force =    -0.00060238    0.00000000    0.00615058
     atom   21 type  1   force =     0.00273918    0.00273918    0.00354010
     atom   22 type  1   force =    -0.00273918   -0.00273918    0.00354010
     atom   23 type  1   force =     0.00060238    0.00000000    0.00615058
     atom   24 type  1   force =    -0.00273918    0.00273918    0.00354010
     atom   25 type  1   force =     0.00000000    0.00060238    0.00615058
     atom   26 type  1   force =     0.00000000    0.00000000    0.00341204
     atom   27 type  1   force =     0.00000000   -0.00060238    0.00615058
     atom   28 type  1   force =     0.00000000   -0.00272175    0.03287149
     atom   29 type  1   force =     0.00000000    0.00272175    0.03287149
     atom   30 type  1   force =     0.00000000    0.00000000    0.03578354
     atom   31 type  1   force =    -0.00109243   -0.00109243    0.03127786
     atom   32 type  1   force =    -0.00109243    0.00109243    0.03127786
     atom   33 type  1   force =    -0.00272175    0.00000000    0.03287149
     atom   34 type  1   force =     0.00109243   -0.00109243    0.03127786
     atom   35 type  1   force =     0.00109243    0.00109243    0.03127786
     atom   36 type  1   force =     0.00272175    0.00000000    0.03287149
     atom   37 type  2   force =     0.00000000    0.00000000    0.01085503

     Total force =     0.099737     Total SCF correction =     0.000107
     Energy error            =      1.3E-02 Ry
     Gradient error          =      3.6E-02 Ry/Bohr

     number of scf cycles    =   3
     number of bfgs steps    =   2

     energy             old  =   -1462.9771857900 Ry
     energy             new  =   -1462.9905644899 Ry

     CASE: energy            _new < energy            _old

     new trust radius        =       0.0690626370 bohr
     new conv_thr            =       0.0000000358 Ry


ATOMIC_POSITIONS (alat)
Al               0.0000000000        0.0000000000        0.0000000000    0   0   0
Al               0.0000000000        0.9999999968        0.0000000000    0   0   0
Al               0.0000000000        1.9999999938        0.0000000000    0   0   0
Al               0.9999999968        0.0000000000        0.0000000000    0   0   0
Al               0.9999999968        0.9999999968        0.0000000000    0   0   0
Al               0.9999999968        1.9999999938        0.0000000000    0   0   0
Al               1.9999999938        0.0000000000        0.0000000000    0   0   0
Al               1.9999999938        0.9999999968        0.0000000000    0   0   0
Al               1.9999999938        1.9999999938        0.0000000000    0   0   0
Al               0.4999999984        0.4999999984        0.7071067668    0   0   0
Al               0.4999999984        1.4999999954        0.7071067668    0   0   0
Al               0.4999999984        2.4999999922        0.7071067668    0   0   0
Al               1.4999999954        0.4999999984        0.7071067668    0   0   0
Al               1.4999999954        1.4999999954        0.7071067668    0   0   0
Al               1.4999999954        2.4999999922        0.7071067668    0   0   0
Al               2.4999999922        0.4999999984        0.7071067668    0   0   0
Al               2.4999999922        1.4999999954        0.7071067668    0   0   0
Al               2.4999999922        2.4999999922        0.7071067668    0   0   0
Al               0.0023291553       -0.0023291553        1.3261933938
Al               0.0024056468        0.9999999968        1.3379798981
Al               0.0023291553        2.0023291491        1.3261897981
Al               0.9976708416       -0.0023291553        1.3261897981
Al               0.9975943501        0.9999999968        1.3379789394
Al               0.9976708416        2.0023291491        1.3261888394
Al               1.9999999938       -0.0024056468        1.3379798981
Al               1.9999999938        0.9999999968        1.3241120578
Al               1.9999999938        2.0024056406        1.3379789394
Al               0.4999999984        0.5040984389        1.9823276868
Al               0.4999999984        1.4959015549        1.9823264988
Al               0.4999999984        2.4999999922        1.9604817136
Al               1.4828899895        0.4828899926        1.9638979826
Al               1.4828899895        1.5171100012        1.9639002401
Al               1.5040984358        2.4999999922        1.9823264988
Al               2.5171099981        0.4828899926        1.9638991706
Al               2.5171099981        1.5171100012        1.9638979826
Al               2.4959015518        2.4999999922        1.9823276868
O                1.9999999985        0.9999999992        2.0555820143    0   0   1



     Writing config-only to output data dir ./tmp/Al.save/ :
     XML data file
     NEW-OLD atomic charge density approx. for the potential

     negative rho (up, down):  4.778E-04 0.000E+00

     total cpu time spent up to now is     1632.3 secs

     Self-consistent Calculation

     iteration #  1     ecut=    40.00 Ry     beta= 0.50
     Davidson diagonalization with overlap
     ethr =  1.00E-06,  avg # of iterations =  9.0

     negative rho (up, down):  4.896E-04 0.000E+00

     total cpu time spent up to now is     1695.3 secs

     total energy              =   -1463.00918592 Ry
     estimated scf accuracy    <       0.00351600 Ry

     iteration #  2     ecut=    40.00 Ry     beta= 0.50
     Davidson diagonalization with overlap
     ethr =  3.08E-06,  avg # of iterations =  1.0

     negative rho (up, down):  6.491E-04 0.000E+00

     total cpu time spent up to now is     1728.2 secs

     total energy              =   -1463.00885599 Ry
     estimated scf accuracy    <       0.00140299 Ry

     iteration #  3     ecut=    40.00 Ry     beta= 0.50
     Davidson diagonalization with overlap
     ethr =  1.23E-06,  avg # of iterations =  2.7

     negative rho (up, down):  6.926E-04 0.000E+00

     total cpu time spent up to now is     1767.5 secs

     total energy              =   -1463.00910554 Ry
     estimated scf accuracy    <       0.00007605 Ry

     iteration #  4     ecut=    40.00 Ry     beta= 0.50
     Davidson diagonalization with overlap
     ethr =  6.67E-08,  avg # of iterations =  9.7

     negative rho (up, down):  6.958E-04 0.000E+00

     total cpu time spent up to now is     1804.4 secs

     total energy              =   -1463.00912153 Ry
     estimated scf accuracy    <       0.00003158 Ry

     iteration #  5     ecut=    40.00 Ry     beta= 0.50
     Davidson diagonalization with overlap
     ethr =  2.77E-08,  avg # of iterations =  2.0

     negative rho (up, down):  6.985E-04 0.000E+00

     total cpu time spent up to now is     1830.4 secs

     total energy              =   -1463.00912477 Ry
     estimated scf accuracy    <       0.00000516 Ry

     iteration #  6     ecut=    40.00 Ry     beta= 0.50
     Davidson diagonalization with overlap
     ethr =  4.53E-09,  avg # of iterations =  7.7

     negative rho (up, down):  6.807E-04 0.000E+00

     total cpu time spent up to now is     1861.1 secs

     total energy              =   -1463.00912575 Ry
     estimated scf accuracy    <       0.00000035 Ry

     iteration #  7     ecut=    40.00 Ry     beta= 0.50
     Davidson diagonalization with overlap
     ethr =  3.05E-10,  avg # of iterations = 10.7

     negative rho (up, down):  6.851E-04 0.000E+00

     total cpu time spent up to now is     1898.9 secs

     total energy              =   -1463.00912630 Ry
     estimated scf accuracy    <       0.00000258 Ry

     iteration #  8     ecut=    40.00 Ry     beta= 0.50
     Davidson diagonalization with overlap
     ethr =  3.05E-10,  avg # of iterations =  1.0

     negative rho (up, down):  5.679E-04 0.000E+00

     total cpu time spent up to now is     1922.9 secs

     total energy              =   -1463.00912499 Ry
     estimated scf accuracy    <       0.00000297 Ry

     iteration #  9     ecut=    40.00 Ry     beta= 0.50
     Davidson diagonalization with overlap
     ethr =  3.05E-10,  avg # of iterations =  5.7

     negative rho (up, down):  5.572E-04 0.000E+00

     total cpu time spent up to now is     1954.5 secs

     total energy              =   -1463.00912575 Ry
     estimated scf accuracy    <       0.00000062 Ry

     iteration # 10     ecut=    40.00 Ry     beta= 0.50
     Davidson diagonalization with overlap
     ethr =  3.05E-10,  avg # of iterations =  1.3

     negative rho (up, down):  5.394E-04 0.000E+00

     total cpu time spent up to now is     1978.6 secs

     total energy              =   -1463.00912584 Ry
     estimated scf accuracy    <       0.00000034 Ry

     iteration # 11     ecut=    40.00 Ry     beta= 0.50
     Davidson diagonalization with overlap
     ethr =  3.01E-10,  avg # of iterations =  3.0

     negative rho (up, down):  4.827E-04 0.000E+00

     total cpu time spent up to now is     2001.2 secs

     End of self-consistent calculation

          k = 0.0417 0.0417 0.0000 ( 48283 PWs)   bands (ev):

   -20.4412 -11.0199  -9.6044  -9.5737  -9.1679  -8.7204  -8.6489  -8.2083
    -8.0772  -7.8329  -7.4620  -7.3426  -7.1625  -6.9001  -6.8848  -6.5773
    -6.4242  -6.2994  -5.8576  -5.6667  -5.4674  -5.3047  -4.9417  -4.9180
    -4.4655  -4.4313  -4.1805  -4.0900  -3.8099  -3.7214  -3.6475  -2.9596
    -2.9125  -2.8479  -2.7711  -2.5336  -2.4553  -2.4452  -2.3058  -2.1585
    -2.0083  -1.9605  -1.7809  -1.5343  -1.4029  -1.3413  -1.2246  -1.1260
    -1.0063  -0.9482  -0.6892  -0.6386  -0.4605  -0.3856  -0.1872  -0.0768
    -0.0453   0.0066   0.0681   0.1913   0.3186   0.3473   0.5473   0.6946
     0.8245   0.8771   0.9217   1.0603

          k = 0.0417 0.1250 0.0000 ( 48328 PWs)   bands (ev):

   -20.4412 -10.7811 -10.2917  -9.3559  -9.0133  -8.8566  -8.5317  -8.4329
    -8.0503  -7.7269  -7.6537  -7.2893  -7.0293  -6.8351  -6.6037  -6.2829
    -6.1848  -6.1117  -5.8585  -5.7345  -5.4875  -5.2193  -5.0519  -4.7269
    -4.6233  -4.4074  -4.1389  -4.0062  -3.9824  -3.7367  -3.6574  -3.4857
    -3.4305  -3.2974  -3.1744  -2.9625  -2.6947  -2.5342  -2.2179  -2.0964
    -1.9100  -1.9043  -1.8284  -1.7271  -1.5731  -1.3683  -1.1957  -1.0991
    -1.0832  -0.8287  -0.7104  -0.5173  -0.3878  -0.2797  -0.2494  -0.1434
    -0.0044   0.2185   0.2446   0.3643   0.6538   0.6867   0.7769   0.8890
     1.0913   1.1789   1.2355   1.5005

          k = 0.1250 0.1250 0.0000 ( 48243 PWs)   bands (ev):

   -20.4412 -10.5411 -10.0914 -10.0176  -9.5834  -8.7545  -8.4754  -8.1562
    -8.0161  -7.5239  -7.4548  -7.0130  -6.8471  -6.7191  -6.4086  -6.3267
    -5.9787  -5.8858  -5.8433  -5.6117  -5.5107  -5.3520  -5.2802  -5.1189
    -5.0321  -4.8517  -4.5696  -4.2872  -3.7502  -3.7028  -3.6352  -3.4000
    -3.2813  -3.0792  -2.9152  -2.8623  -2.8016  -2.7986  -2.6933  -2.3729
    -2.3137  -2.1551  -1.8222  -1.5569  -1.5272  -1.2545  -1.2492  -0.9230
    -0.8097  -0.7909  -0.5318  -0.4821  -0.3469  -0.1193  -0.0920  -0.0394
    -0.0206   0.0807   0.2540   0.4531   0.5926   0.6582   0.8735   1.0614
     1.2074   1.3641   1.4015   1.5303

     the Fermi energy is     0.0894 ev

!    total energy              =   -1463.00912581 Ry
     total all-electron energy =    -17632.996155 Ry
     estimated scf accuracy    <       0.00000002 Ry
     smearing contrib. (-TS)   =      -0.02150339 Ry
     internal energy E=F+TS    =   -1462.98762242 Ry

     The total energy is F=E-TS. E is the sum of the following terms:
     one-electron contribution =   -1890.51852123 Ry
     hartree contribution      =     973.93482256 Ry
     xc contribution           =    -100.02820607 Ry
     ewald contribution        =     811.78056901 Ry
     one-center paw contrib.   =   -1258.15628669 Ry

     convergence has been achieved in  11 iterations

     negative rho (up, down):  4.827E-04 0.000E+00

     Forces acting on atoms (cartesian axes, Ry/au):

     atom    1 type  1   force =    -0.00022678    0.00022678   -0.00623817
     atom    2 type  1   force =     0.00218687   -0.00000000   -0.00595210
     atom    3 type  1   force =    -0.00022678   -0.00022678   -0.00623817
     atom    4 type  1   force =     0.00022678    0.00022678   -0.00623817
     atom    5 type  1   force =    -0.00218687   -0.00000000   -0.00595210
     atom    6 type  1   force =     0.00022678   -0.00022678   -0.00623817
     atom    7 type  1   force =    -0.00000000   -0.00218687   -0.00595210
     atom    8 type  1   force =     0.00000000    0.00000000   -0.00500020
     atom    9 type  1   force =     0.00000000    0.00218687   -0.00595210
     atom   10 type  1   force =     0.00000000    0.00168706   -0.03165345
     atom   11 type  1   force =     0.00000000   -0.00168706   -0.03165345
     atom   12 type  1   force =     0.00000000    0.00000000   -0.03233519
     atom   13 type  1   force =    -0.00091342   -0.00091342   -0.02991941
     atom   14 type  1   force =    -0.00091342    0.00091342   -0.02991941
     atom   15 type  1   force =     0.00168706    0.00000000   -0.03165345
     atom   16 type  1   force =     0.00091342   -0.00091342   -0.02991941
     atom   17 type  1   force =     0.00091342    0.00091342   -0.02991941
     atom   18 type  1   force =    -0.00168706    0.00000000   -0.03165345
     atom   19 type  1   force =     0.00222903   -0.00222903    0.00533835
     atom   20 type  1   force =    -0.00020195    0.00000000    0.00748340
     atom   21 type  1   force =     0.00222903    0.00222903    0.00533835
     atom   22 type  1   force =    -0.00222903   -0.00222903    0.00533835
     atom   23 type  1   force =     0.00020195    0.00000000    0.00748340
     atom   24 type  1   force =    -0.00222903    0.00222903    0.00533835
     atom   25 type  1   force =    -0.00000000    0.00020195    0.00748340
     atom   26 type  1   force =     0.00000000    0.00000000    0.00570492
     atom   27 type  1   force =     0.00000000   -0.00020195    0.00748340
     atom   28 type  1   force =     0.00000000   -0.00210575    0.02981410
     atom   29 type  1   force =     0.00000000    0.00210575    0.02981410
     atom   30 type  1   force =     0.00000000    0.00000000    0.03225237
     atom   31 type  1   force =    -0.00104487   -0.00104487    0.02833885
     atom   32 type  1   force =    -0.00104487    0.00104487    0.02833885
     atom   33 type  1   force =    -0.00210575    0.00000000    0.02981410
     atom   34 type  1   force =     0.00104487   -0.00104487    0.02833885
     atom   35 type  1   force =     0.00104487    0.00104487    0.02833885
     atom   36 type  1   force =     0.00210575    0.00000000    0.02981410
     atom   37 type  2   force =     0.00000000    0.00000000    0.01053185

     Total force =     0.091411     Total SCF correction =     0.000160
     Energy error            =      1.9E-02 Ry
     Gradient error          =      3.2E-02 Ry/Bohr

     number of scf cycles    =   4
     number of bfgs steps    =   3

     energy             old  =   -1462.9905644899 Ry
     energy             new  =   -1463.0091258124 Ry

     CASE: energy            _new < energy            _old

     new trust radius        =       0.1035939554 bohr
     new conv_thr            =       0.0000000323 Ry


ATOMIC_POSITIONS (alat)
Al               0.0000000000        0.0000000000        0.0000000000    0   0   0
Al               0.0000000000        0.9999999968        0.0000000000    0   0   0
Al               0.0000000000        1.9999999938        0.0000000000    0   0   0
Al               0.9999999968        0.0000000000        0.0000000000    0   0   0
Al               0.9999999968        0.9999999968        0.0000000000    0   0   0
Al               0.9999999968        1.9999999938        0.0000000000    0   0   0
Al               1.9999999938        0.0000000000        0.0000000000    0   0   0
Al               1.9999999938        0.9999999968        0.0000000000    0   0   0
Al               1.9999999938        1.9999999938        0.0000000000    0   0   0
Al               0.4999999984        0.4999999984        0.7071067668    0   0   0
Al               0.4999999984        1.4999999954        0.7071067668    0   0   0
Al               0.4999999984        2.4999999922        0.7071067668    0   0   0
Al               1.4999999954        0.4999999984        0.7071067668    0   0   0
Al               1.4999999954        1.4999999954        0.7071067668    0   0   0
Al               1.4999999954        2.4999999922        0.7071067668    0   0   0
Al               2.4999999922        0.4999999984        0.7071067668    0   0   0
Al               2.4999999922        1.4999999954        0.7071067668    0   0   0
Al               2.4999999922        2.4999999922        0.7071067668    0   0   0
Al               0.0028486332       -0.0028486332        1.3337823950
Al               0.0027616027        0.9999999968        1.3468032675
Al               0.0028486332        2.0028486270        1.3337787993
Al               0.9971513637       -0.0028486332        1.3337787993
Al               0.9972383942        0.9999999968        1.3468023088
Al               0.9971513637        2.0028486270        1.3337778406
Al               1.9999999938       -0.0027616027        1.3468032675
Al               1.9999999938        0.9999999968        1.3309978399
Al               1.9999999938        2.0027615966        1.3468023088
Al               0.4999999984        0.5034892721        1.9995884239
Al               0.4999999984        1.4965107217        1.9995872359
Al               0.4999999984        2.4999999922        1.9796856513
Al               1.4813296875        0.4813296906        1.9800205923
Al               1.4813296875        1.5186703032        1.9800228498
Al               1.5034892690        2.4999999922        1.9995872359
Al               2.5186703001        0.4813296906        1.9800217803
Al               2.5186703001        1.5186703032        1.9800205923
Al               2.4965107186        2.4999999922        1.9995884239
O                1.9999999985        0.9999999992        2.0629582052    0   0   1



     Writing config-only to output data dir ./tmp/Al.save/ :
     XML data file
     NEW-OLD atomic charge density approx. for the potential

     negative rho (up, down):  4.699E-04 0.000E+00

     total cpu time spent up to now is     2023.1 secs

     Self-consistent Calculation

     iteration #  1     ecut=    40.00 Ry     beta= 0.50
     Davidson diagonalization with overlap
     ethr =  1.00E-06,  avg # of iterations = 17.3

     negative rho (up, down):  5.907E-04 0.000E+00

     total cpu time spent up to now is     2079.6 secs

     total energy              =   -1463.03518222 Ry
     estimated scf accuracy    <       0.01045427 Ry

     iteration #  2     ecut=    40.00 Ry     beta= 0.50
     Davidson diagonalization with overlap
     ethr =  9.17E-06,  avg # of iterations =  4.0

     negative rho (up, down):  9.286E-04 0.000E+00

     total cpu time spent up to now is     2105.3 secs

     total energy              =   -1463.03458363 Ry
     estimated scf accuracy    <       0.00348619 Ry

     iteration #  3     ecut=    40.00 Ry     beta= 0.50
     Davidson diagonalization with overlap
     ethr =  3.06E-06,  avg # of iterations =  2.0

     negative rho (up, down):  1.013E-03 0.000E+00

     total cpu time spent up to now is     2131.1 secs

     total energy              =   -1463.03505774 Ry
     estimated scf accuracy    <       0.00003273 Ry

     iteration #  4     ecut=    40.00 Ry     beta= 0.50
     Davidson diagonalization with overlap
     c_bands:  1 eigenvalues not converged
     ethr =  2.87E-08,  avg # of iterations = 15.7

     negative rho (up, down):  9.651E-04 0.000E+00

     total cpu time spent up to now is     2178.7 secs

     total energy              =   -1463.03511134 Ry
     estimated scf accuracy    <       0.00015276 Ry

     iteration #  5     ecut=    40.00 Ry     beta= 0.50
     Davidson diagonalization with overlap
     ethr =  2.87E-08,  avg # of iterations =  3.3

     negative rho (up, down):  8.769E-04 0.000E+00

     total cpu time spent up to now is     2205.3 secs

     total energy              =   -1463.03511744 Ry
     estimated scf accuracy    <       0.00001703 Ry

     iteration #  6     ecut=    40.00 Ry     beta= 0.50
     Davidson diagonalization with overlap
     ethr =  1.49E-08,  avg # of iterations =  2.7

     negative rho (up, down):  7.962E-04 0.000E+00

     total cpu time spent up to now is     2232.8 secs

     total energy              =   -1463.03511748 Ry
     estimated scf accuracy    <       0.00000261 Ry

     iteration #  7     ecut=    40.00 Ry     beta= 0.50
     Davidson diagonalization with overlap
     ethr =  2.29E-09,  avg # of iterations = 10.0

     negative rho (up, down):  7.234E-04 0.000E+00

     total cpu time spent up to now is     2284.0 secs

     total energy              =   -1463.03511830 Ry
     estimated scf accuracy    <       0.00000209 Ry

     iteration #  8     ecut=    40.00 Ry     beta= 0.50
     Davidson diagonalization with overlap
     ethr =  1.84E-09,  avg # of iterations =  1.7

     negative rho (up, down):  5.530E-04 0.000E+00

     total cpu time spent up to now is     2320.9 secs

     total energy              =   -1463.03511749 Ry
     estimated scf accuracy    <       0.00000260 Ry

     iteration #  9     ecut=    40.00 Ry     beta= 0.50
     Davidson diagonalization with overlap
     ethr =  1.84E-09,  avg # of iterations =  1.7

     negative rho (up, down):  5.520E-04 0.000E+00

     total cpu time spent up to now is     2357.7 secs

     total energy              =   -1463.03511762 Ry
     estimated scf accuracy    <       0.00000063 Ry

     iteration # 10     ecut=    40.00 Ry     beta= 0.50
     Davidson diagonalization with overlap
     ethr =  5.49E-10,  avg # of iterations =  1.7

     negative rho (up, down):  5.034E-04 0.000E+00

     total cpu time spent up to now is     2393.1 secs

     total energy              =   -1463.03511763 Ry
     estimated scf accuracy    <       0.00000041 Ry

     iteration # 11     ecut=    40.00 Ry     beta= 0.50
     Davidson diagonalization with overlap
     ethr =  3.59E-10,  avg # of iterations =  6.0

     negative rho (up, down):  4.782E-04 0.000E+00

     total cpu time spent up to now is     2427.2 secs

     End of self-consistent calculation

          k = 0.0417 0.0417 0.0000 ( 48283 PWs)   bands (ev):

   -20.4065 -10.9581  -9.5409  -9.5133  -9.1492  -8.6612  -8.5873  -8.1511
    -8.0517  -7.8067  -7.4248  -7.3140  -7.1083  -6.8821  -6.8664  -6.5568
    -6.3976  -6.2551  -5.8282  -5.6461  -5.4691  -5.3005  -4.9228  -4.8986
    -4.4537  -4.4273  -4.1438  -4.0377  -3.7951  -3.7298  -3.6479  -2.9451
    -2.9040  -2.7903  -2.7204  -2.5231  -2.4248  -2.4033  -2.2675  -2.1488
    -1.9851  -1.9583  -1.7708  -1.5041  -1.4357  -1.3334  -1.2402  -1.1102
    -0.9659  -0.9525  -0.6711  -0.6254  -0.4494  -0.3609  -0.1916  -0.0872
    -0.0798   0.0171   0.0601   0.2138   0.3028   0.3868   0.5794   0.6957
     0.7953   0.8518   0.9236   1.0569

          k = 0.0417 0.1250 0.0000 ( 48328 PWs)   bands (ev):

   -20.4065 -10.7192 -10.2292  -9.2937  -8.9871  -8.8041  -8.5094  -8.3764
    -7.9999  -7.6846  -7.6193  -7.2548  -6.9978  -6.8143  -6.6031  -6.2609
    -6.1525  -6.1031  -5.8126  -5.6919  -5.4613  -5.1973  -5.0357  -4.6879
    -4.6119  -4.3606  -4.1301  -3.9687  -3.9623  -3.6964  -3.6243  -3.5090
    -3.3995  -3.2614  -3.1628  -2.9825  -2.6725  -2.5163  -2.2082  -2.0841
    -1.9046  -1.8899  -1.7973  -1.7173  -1.5632  -1.3656  -1.1941  -1.1230
    -1.1081  -0.8344  -0.7351  -0.5343  -0.3539  -0.2495  -0.2277  -0.1394
     0.0027   0.2118   0.2382   0.3531   0.6396   0.6893   0.7648   0.9336
     1.0692   1.1831   1.2185   1.5163

          k = 0.1250 0.1250 0.0000 ( 48243 PWs)   bands (ev):

   -20.4065 -10.4792 -10.0279  -9.9561  -9.5211  -8.7377  -8.4578  -8.1357
    -7.9915  -7.4800  -7.4122  -6.9541  -6.8039  -6.6679  -6.3589  -6.3223
    -5.9462  -5.8769  -5.8465  -5.5659  -5.4596  -5.3307  -5.2608  -5.0577
    -5.0147  -4.8124  -4.5472  -4.2677  -3.7080  -3.6809  -3.6064  -3.3825
    -3.3114  -3.0792  -2.9129  -2.8667  -2.7837  -2.7752  -2.7168  -2.3800
    -2.3070  -2.1650  -1.7791  -1.5577  -1.5272  -1.2476  -1.2166  -0.9657
    -0.7913  -0.7520  -0.5657  -0.4632  -0.3768  -0.0777  -0.0558  -0.0215
    -0.0041   0.0777   0.2244   0.4588   0.5666   0.6614   0.8640   1.0618
     1.2077   1.3493   1.4188   1.5412

     the Fermi energy is     0.0953 ev

!    total energy              =   -1463.03511766 Ry
     total all-electron energy =    -17633.022147 Ry
     estimated scf accuracy    <       0.00000003 Ry
     smearing contrib. (-TS)   =      -0.02401277 Ry
     internal energy E=F+TS    =   -1463.01110489 Ry

     The total energy is F=E-TS. E is the sum of the following terms:
     one-electron contribution =   -1875.48699625 Ry
     hartree contribution      =     966.41613265 Ry
     xc contribution           =     -99.89331909 Ry
     ewald contribution        =     804.08326253 Ry
     one-center paw contrib.   =   -1258.13018474 Ry

     convergence has been achieved in  11 iterations

     negative rho (up, down):  4.782E-04 0.000E+00

     Forces acting on atoms (cartesian axes, Ry/au):

     atom    1 type  1   force =    -0.00024020    0.00024020   -0.00648999
     atom    2 type  1   force =     0.00230716    0.00000000   -0.00607063
     atom    3 type  1   force =    -0.00024020   -0.00024020   -0.00648999
     atom    4 type  1   force =     0.00024020    0.00024020   -0.00648999
     atom    5 type  1   force =    -0.00230716   -0.00000000   -0.00607063
     atom    6 type  1   force =     0.00024020   -0.00024020   -0.00648999
     atom    7 type  1   force =     0.00000000   -0.00230716   -0.00607063
     atom    8 type  1   force =     0.00000000    0.00000000   -0.00500872
     atom    9 type  1   force =    -0.00000000    0.00230716   -0.00607063
     atom   10 type  1   force =     0.00000000    0.00175352   -0.02810252
     atom   11 type  1   force =     0.00000000   -0.00175352   -0.02810252
     atom   12 type  1   force =     0.00000000    0.00000000   -0.02952315
     atom   13 type  1   force =    -0.00090407   -0.00090407   -0.02658060
     atom   14 type  1   force =    -0.00090407    0.00090407   -0.02658060
     atom   15 type  1   force =     0.00175352    0.00000000   -0.02810252
     atom   16 type  1   force =     0.00090407   -0.00090407   -0.02658060
     atom   17 type  1   force =     0.00090407    0.00090407   -0.02658060
     atom   18 type  1   force =    -0.00175352    0.00000000   -0.02810252
     atom   19 type  1   force =     0.00197312   -0.00197312    0.00560426
     atom   20 type  1   force =     0.00009854    0.00000000    0.00709859
     atom   21 type  1   force =     0.00197312    0.00197312    0.00560426
     atom   22 type  1   force =    -0.00197312   -0.00197312    0.00560426
     atom   23 type  1   force =    -0.00009854    0.00000000    0.00709859
     atom   24 type  1   force =    -0.00197312    0.00197312    0.00560426
     atom   25 type  1   force =     0.00000000   -0.00009854    0.00709859
     atom   26 type  1   force =     0.00000000    0.00000000    0.00726290
     atom   27 type  1   force =     0.00000000    0.00009854    0.00709859
     atom   28 type  1   force =     0.00000000   -0.00159926    0.02651567
     atom   29 type  1   force =     0.00000000    0.00159926    0.02651567
     atom   30 type  1   force =     0.00000000    0.00000000    0.02793763
     atom   31 type  1   force =    -0.00041972   -0.00041972    0.02533184
     atom   32 type  1   force =    -0.00041972    0.00041972    0.02533184
     atom   33 type  1   force =    -0.00159926    0.00000000    0.02651567
     atom   34 type  1   force =     0.00041972   -0.00041972    0.02533184
     atom   35 type  1   force =     0.00041972    0.00041972    0.02533184
     atom   36 type  1   force =     0.00159926    0.00000000    0.02651567
     atom   37 type  2   force =     0.00000000    0.00000000    0.01010482

     Total force =     0.081759     Total SCF correction =     0.000229
     Energy error            =      2.6E-02 Ry
     Gradient error          =      2.8E-02 Ry/Bohr

     number of scf cycles    =   5
     number of bfgs steps    =   4

     energy             old  =   -1463.0091258124 Ry
     energy             new  =   -1463.0351176626 Ry

     CASE: energy            _new < energy            _old

     new trust radius        =       0.1553909332 bohr
     new conv_thr            =       0.0000000279 Ry


ATOMIC_POSITIONS (alat)
Al               0.0000000000        0.0000000000        0.0000000000    0   0   0
Al               0.0000000000        0.9999999968        0.0000000000    0   0   0
Al               0.0000000000        1.9999999938        0.0000000000    0   0   0
Al               0.9999999968        0.0000000000        0.0000000000    0   0   0
Al               0.9999999968        0.9999999968        0.0000000000    0   0   0
Al               0.9999999968        1.9999999938        0.0000000000    0   0   0
Al               1.9999999938        0.0000000000        0.0000000000    0   0   0
Al               1.9999999938        0.9999999968        0.0000000000    0   0   0
Al               1.9999999938        1.9999999938        0.0000000000    0   0   0
Al               0.4999999984        0.4999999984        0.7071067668    0   0   0
Al               0.4999999984        1.4999999954        0.7071067668    0   0   0
Al               0.4999999984        2.4999999922        0.7071067668    0   0   0
Al               1.4999999954        0.4999999984        0.7071067668    0   0   0
Al               1.4999999954        1.4999999954        0.7071067668    0   0   0
Al               1.4999999954        2.4999999922        0.7071067668    0   0   0
Al               2.4999999922        0.4999999984        0.7071067668    0   0   0
Al               2.4999999922        1.4999999954        0.7071067668    0   0   0
Al               2.4999999922        2.4999999922        0.7071067668    0   0   0
Al               0.0035357929       -0.0035357929        1.3461390658
Al               0.0034655040        0.9999999968        1.3608670990
Al               0.0035357929        2.0035357868        1.3461354701
Al               0.9964642040       -0.0035357929        1.3461354701
Al               0.9965344929        0.9999999968        1.3608661403
Al               0.9964642040        2.0035357868        1.3461345114
Al               1.9999999938       -0.0034655040        1.3608670990
Al               1.9999999938        0.9999999968        1.3426906105
Al               1.9999999938        2.0034654978        1.3608661403
Al               0.4999999984        0.5027484855        2.0256757499
Al               0.4999999984        1.4972515083        2.0256745619
Al               0.4999999984        2.4999999922        2.0084915577
Al               1.4790479253        0.4790479284        2.0044016078
Al               1.4790479253        1.5209520654        2.0044038653
Al               1.5027484824        2.4999999922        2.0256745619
Al               2.5209520624        0.4790479284        2.0044027958
Al               2.5209520624        1.5209520654        2.0044016078
Al               2.4972515052        2.4999999922        2.0256757499
O                1.9999999985        0.9999999992        2.0745389277    0   0   1



     Writing config-only to output data dir ./tmp/Al.save/ :
     XML data file
     NEW-OLD atomic charge density approx. for the potential

     negative rho (up, down):  4.579E-04 0.000E+00

     total cpu time spent up to now is     2454.7 secs

     Self-consistent Calculation

     iteration #  1     ecut=    40.00 Ry     beta= 0.50
     Davidson diagonalization with overlap
     c_bands:  1 eigenvalues not converged
     ethr =  1.00E-06,  avg # of iterations = 19.7

     negative rho (up, down):  5.141E-04 0.000E+00

     total cpu time spent up to now is     2544.3 secs

     total energy              =   -1463.06958901 Ry
[...]
     atom   15 type  1   force =     0.00193763    0.00000000    0.00835922
     atom   16 type  1   force =     0.00172972   -0.00172972    0.00303713
     atom   17 type  1   force =     0.00172972    0.00172972    0.00303713
     atom   18 type  1   force =    -0.00193763   -0.00000000    0.00835922
     atom   19 type  1   force =     0.00023158   -0.00023158   -0.00014029
     atom   20 type  1   force =     0.00010655   -0.00000000   -0.00046187
     atom   21 type  1   force =     0.00023158    0.00023158   -0.00014029
     atom   22 type  1   force =    -0.00023158   -0.00023158   -0.00014029
     atom   23 type  1   force =    -0.00010655    0.00000000   -0.00046187
     atom   24 type  1   force =    -0.00023158    0.00023158   -0.00014029
     atom   25 type  1   force =    -0.00000000   -0.00010655   -0.00046187
     atom   26 type  1   force =     0.00000000    0.00000000   -0.00003474
     atom   27 type  1   force =     0.00000000    0.00010655   -0.00046187
     atom   28 type  1   force =     0.00000000   -0.00010415    0.00017968
     atom   29 type  1   force =    -0.00000000    0.00010415    0.00017968
     atom   30 type  1   force =     0.00000000    0.00000000    0.00111373
     atom   31 type  1   force =     0.00020738    0.00020738   -0.00009792
     atom   32 type  1   force =     0.00020738   -0.00020738   -0.00009792
     atom   33 type  1   force =    -0.00010415   -0.00000000    0.00017968
     atom   34 type  1   force =    -0.00020738    0.00020738   -0.00009792
     atom   35 type  1   force =    -0.00020738   -0.00020738   -0.00009792
     atom   36 type  1   force =     0.00010415    0.00000000    0.00017968
     atom   37 type  2   force =     0.00000000    0.00000000    0.00014679

     Total force =     0.001796     Total SCF correction =     0.000014
     Energy error            =      2.3E-05 Ry
     Gradient error          =      1.1E-03 Ry/Bohr

     number of scf cycles    =  28
     number of bfgs steps    =  27

     energy             old  =   -1463.1869875527 Ry
     energy             new  =   -1463.1870110380 Ry

     CASE: energy            _new < energy            _old

     new trust radius        =       0.0137031457 bohr
     new conv_thr            =       0.0000000010 Ry


ATOMIC_POSITIONS (alat)
Al               0.0000000000        0.0000000000        0.0000000000    0   0   0
Al               0.0000000000        0.9999999974        0.0000000000    0   0   0
Al               0.0000000000        1.9999999949        0.0000000000    0   0   0
Al               0.9999999974        0.0000000000        0.0000000000    0   0   0
Al               0.9999999974        0.9999999974        0.0000000000    0   0   0
Al               0.9999999974        1.9999999949        0.0000000000    0   0   0
Al               1.9999999949        0.0000000000        0.0000000000    0   0   0
Al               1.9999999949        0.9999999974        0.0000000000    0   0   0
Al               1.9999999949        1.9999999949        0.0000000000    0   0   0
Al               0.4999999987        0.4999999987        0.7071067672    0   0   0
Al               0.4999999987        1.4999999963        0.7071067672    0   0   0
Al               0.4999999987        2.4999999936        0.7071067672    0   0   0
Al               1.4999999963        0.4999999987        0.7071067672    0   0   0
Al               1.4999999963        1.4999999963        0.7071067672    0   0   0
Al               1.4999999963        2.4999999936        0.7071067672    0   0   0
Al               2.4999999936        0.4999999987        0.7071067672    0   0   0
Al               2.4999999936        1.4999999963        0.7071067672    0   0   0
Al               2.4999999936        2.4999999936        0.7071067672    0   0   0
Al              -0.0008123725        0.0008123725        1.4335018654
Al              -0.0070847146        0.9999999974        1.4639176593
Al              -0.0008123725        1.9991876225        1.4334982697
Al               1.0008123699        0.0008123725        1.4334982697
Al               1.0070847121        0.9999999974        1.4639167006
Al               1.0008123699        1.9991876225        1.4334973110
Al               1.9999999949        0.0070847146        1.4639176593
Al               1.9999999949        0.9999999974        1.3898022407
Al               1.9999999949        1.9929152803        1.4639167006
Al               0.4999999987        0.4986659524        2.1808639396
Al               0.4999999987        1.5013340425        2.1808627516
Al               0.4999999987        2.4999999936        2.1586510295
Al               1.5135843551        0.5135843577        2.1776254675
Al               1.5135843551        1.4864156373        2.1776277250
Al               1.4986659499        2.4999999936        2.1808627516
Al               2.4864156348        0.5135843577        2.1776266555
Al               2.4864156348        1.4864156373        2.1776254675
Al               2.5013340400        2.4999999936        2.1808639396
O                1.9999999996        0.9999999998        2.4192622651    0   0   1



     Writing config-only to output data dir ./tmp/Al.save/ :
     XML data file
     NEW-OLD atomic charge density approx. for the potential

     negative rho (up, down):  5.132E-04 0.000E+00

     total cpu time spent up to now is    11246.1 secs

     Self-consistent Calculation

     iteration #  1     ecut=    40.00 Ry     beta= 0.50
     Davidson diagonalization with overlap
     ethr =  1.00E-06,  avg # of iterations =  2.0

     Threshold (ethr) on eigenvalues was too large:
     Diagonalizing with lowered threshold

     Davidson diagonalization with overlap
     ethr =  2.14E-09,  avg # of iterations = 15.3

     negative rho (up, down):  5.141E-04 0.000E+00

     total cpu time spent up to now is    11306.3 secs

     total energy              =   -1463.18702304 Ry
     estimated scf accuracy    <       0.00000498 Ry

     iteration #  2     ecut=    40.00 Ry     beta= 0.50
     Davidson diagonalization with overlap
     ethr =  4.37E-09,  avg # of iterations =  1.0

     negative rho (up, down):  5.197E-04 0.000E+00

     total cpu time spent up to now is    11328.2 secs

     total energy              =   -1463.18702233 Ry
     estimated scf accuracy    <       0.00000206 Ry

     iteration #  3     ecut=    40.00 Ry     beta= 0.50
     Davidson diagonalization with overlap
     ethr =  1.81E-09,  avg # of iterations =  4.0

     negative rho (up, down):  5.223E-04 0.000E+00

     total cpu time spent up to now is    11354.0 secs

     total energy              =   -1463.18702269 Ry
     estimated scf accuracy    <       0.00000008 Ry

     iteration #  4     ecut=    40.00 Ry     beta= 0.50
     Davidson diagonalization with overlap
     ethr =  6.98E-11,  avg # of iterations =  8.3

     negative rho (up, down):  5.212E-04 0.000E+00

     total cpu time spent up to now is    11385.1 secs

     total energy              =   -1463.18702273 Ry
     estimated scf accuracy    <       0.00000002 Ry

     iteration #  5     ecut=    40.00 Ry     beta= 0.50
     Davidson diagonalization with overlap
     ethr =  2.14E-11,  avg # of iterations =  4.7

     negative rho (up, down):  5.202E-04 0.000E+00

     total cpu time spent up to now is    11409.0 secs

     total energy              =   -1463.18702274 Ry
     estimated scf accuracy    <          6.6E-09 Ry

     iteration #  6     ecut=    40.00 Ry     beta= 0.50
     Davidson diagonalization with overlap
     ethr =  5.79E-12,  avg # of iterations =  7.0

     negative rho (up, down):  5.201E-04 0.000E+00

     total cpu time spent up to now is    11438.9 secs

     total energy              =   -1463.18702274 Ry
     estimated scf accuracy    <          7.9E-09 Ry

     iteration #  7     ecut=    40.00 Ry     beta= 0.50
     Davidson diagonalization with overlap
     ethr =  5.79E-12,  avg # of iterations =  1.3

     negative rho (up, down):  5.192E-04 0.000E+00

     total cpu time spent up to now is    11461.4 secs

     total energy              =   -1463.18702274 Ry
     estimated scf accuracy    <          4.0E-09 Ry

     iteration #  8     ecut=    40.00 Ry     beta= 0.50
     Davidson diagonalization with overlap
     ethr =  3.50E-12,  avg # of iterations =  3.0

     negative rho (up, down):  5.134E-04 0.000E+00

     total cpu time spent up to now is    11481.9 secs

     End of self-consistent calculation

          k = 0.0417 0.0417 0.0000 ( 48283 PWs)   bands (ev):

   -19.4196 -10.3017  -8.9825  -8.8433  -8.7964  -7.9096  -7.8244  -7.6632
    -7.5975  -7.3666  -6.9136  -6.8983  -6.8445  -6.4208  -6.3458  -6.2830
    -6.1067  -5.8178  -5.3980  -5.3007  -5.2692  -5.1201  -4.7921  -4.4623
    -4.2778  -4.2036  -4.0695  -3.7641  -3.5403  -3.4391  -3.3059  -2.8658
    -2.7762  -2.5795  -2.5171  -2.1490  -2.1460  -2.0491  -1.9791  -1.8534
    -1.7728  -1.7049  -1.6089  -1.5456  -1.4979  -1.2746  -1.1507  -0.8833
    -0.7284  -0.6840  -0.5457  -0.4263  -0.3371  -0.3190  -0.2754  -0.2431
    -0.2253  -0.0887   0.0807   0.3043   0.4414   0.5363   0.6849   0.7250
     0.8377   0.9535   1.0306   1.1515

          k = 0.0417 0.1250 0.0000 ( 48328 PWs)   bands (ev):

   -19.4196 -10.0534  -9.5588  -8.7505  -8.5796  -8.2795  -8.0941  -7.6438
    -7.4381  -7.1214  -7.0990  -6.7492  -6.6022  -6.5499  -6.4246  -6.0555
    -5.9448  -5.6405  -5.2283  -5.1541  -5.1103  -4.9538  -4.6500  -4.2457
    -4.1739  -3.9936  -3.8736  -3.7683  -3.6987  -3.6073  -3.4271  -3.1948
    -3.1772  -3.0483  -2.7945  -2.7228  -2.5620  -2.3748  -2.3192  -1.9666
    -1.8998  -1.6818  -1.6433  -1.5611  -1.4228  -1.3829  -1.2756  -1.1617
    -1.0671  -0.9180  -0.8447  -0.6779  -0.3542  -0.2426  -0.1878   0.0669
     0.1974   0.3170   0.4016   0.4158   0.5617   0.5936   0.6458   0.8370
     1.0506   1.1711   1.3225   1.5748

          k = 0.1250 0.1250 0.0000 ( 48243 PWs)   bands (ev):

   -19.4196  -9.8058  -9.3327  -9.2910  -8.8234  -8.5157  -8.1328  -7.9744
    -7.6268  -6.7807  -6.7714  -6.3892  -6.2983  -6.1420  -5.8693  -5.8594
    -5.8404  -5.5988  -5.3649  -5.0159  -5.0112  -4.8657  -4.8490  -4.6622
    -4.4127  -4.4022  -4.3502  -3.9267  -3.5908  -3.5506  -3.4459  -3.1790
    -3.1094  -3.1011  -3.0362  -2.8930  -2.8634  -2.7247  -2.4952  -2.3391
    -2.0777  -2.0759  -1.6304  -1.4650  -1.4232  -1.2861  -1.0902  -0.9375
    -0.8523  -0.7375  -0.7052  -0.6436  -0.2671  -0.2487  -0.0896   0.1115
     0.2413   0.3238   0.5227   0.6534   0.6872   0.7125   0.9252   0.9998
     1.0866   1.2954   1.4318   1.5326

     the Fermi energy is     0.1481 ev

!    total energy              =   -1463.18702274 Ry
     total all-electron energy =    -17633.174052 Ry
     estimated scf accuracy    <          7.4E-10 Ry
     smearing contrib. (-TS)   =      -0.00878249 Ry
     internal energy E=F+TS    =   -1463.17824025 Ry

     The total energy is F=E-TS. E is the sum of the following terms:
     one-electron contribution =   -1667.89396506 Ry
     hartree contribution      =     862.76938608 Ry
     xc contribution           =     -98.51754668 Ry
     ewald contribution        =     698.36155470 Ry
     one-center paw contrib.   =   -1257.89766929 Ry

     convergence has been achieved in   8 iterations

     negative rho (up, down):  5.134E-04 0.000E+00

     Forces acting on atoms (cartesian axes, Ry/au):

     atom    1 type  1   force =    -0.00137937    0.00137937   -0.00543501
     atom    2 type  1   force =    -0.00010822    0.00000000   -0.00610731
     atom    3 type  1   force =    -0.00137937   -0.00137937   -0.00543501
     atom    4 type  1   force =     0.00137937    0.00137937   -0.00543501
     atom    5 type  1   force =     0.00010822    0.00000000   -0.00610731
     atom    6 type  1   force =     0.00137937   -0.00137937   -0.00543501
     atom    7 type  1   force =     0.00000000    0.00010822   -0.00610731
     atom    8 type  1   force =     0.00000000    0.00000000   -0.00619760
     atom    9 type  1   force =     0.00000000   -0.00010822   -0.00610731
     atom   10 type  1   force =     0.00000000    0.00194783    0.00836891
     atom   11 type  1   force =     0.00000000   -0.00194783    0.00836891
     atom   12 type  1   force =     0.00000000    0.00000000    0.00760078
     atom   13 type  1   force =    -0.00175481   -0.00175481    0.00307243
     atom   14 type  1   force =    -0.00175481    0.00175481    0.00307243
     atom   15 type  1   force =     0.00194783    0.00000000    0.00836891
     atom   16 type  1   force =     0.00175481   -0.00175481    0.00307243
     atom   17 type  1   force =     0.00175481    0.00175481    0.00307243
     atom   18 type  1   force =    -0.00194783    0.00000000    0.00836891
     atom   19 type  1   force =     0.00024302   -0.00024302   -0.00005549
     atom   20 type  1   force =     0.00019648   -0.00000000   -0.00045395
     atom   21 type  1   force =     0.00024302    0.00024302   -0.00005549
     atom   22 type  1   force =    -0.00024302   -0.00024302   -0.00005549
     atom   23 type  1   force =    -0.00019648    0.00000000   -0.00045395
     atom   24 type  1   force =    -0.00024302    0.00024302   -0.00005549
     atom   25 type  1   force =     0.00000000   -0.00019648   -0.00045395
     atom   26 type  1   force =     0.00000000    0.00000000    0.00002937
     atom   27 type  1   force =    -0.00000000    0.00019648   -0.00045395
     atom   28 type  1   force =    -0.00000000    0.00015935    0.00011869
     atom   29 type  1   force =     0.00000000   -0.00015935    0.00011869
     atom   30 type  1   force =     0.00000000    0.00000000    0.00053199
     atom   31 type  1   force =     0.00036482    0.00036482    0.00005995
     atom   32 type  1   force =     0.00036482   -0.00036482    0.00005995
     atom   33 type  1   force =     0.00015935   -0.00000000    0.00011869
     atom   34 type  1   force =    -0.00036482    0.00036482    0.00005995
     atom   35 type  1   force =    -0.00036482   -0.00036482    0.00005995
     atom   36 type  1   force =    -0.00015935   -0.00000000    0.00011869
     atom   37 type  2   force =     0.00000000    0.00000000   -0.00023739

     Total force =     0.001744     Total SCF correction =     0.000037
     Energy error            =      1.2E-05 Ry
     Gradient error          =      5.3E-04 Ry/Bohr

     bfgs converged in  29 scf cycles and  28 bfgs steps
     (criteria: energy <  1.0E-04 Ry, force <  1.0E-03 Ry/Bohr)

     End of BFGS Geometry Optimization

     Final energy             =   -1463.1870227418 Ry

     File ./tmp/Al.bfgs deleted, as requested
Begin final coordinates

ATOMIC_POSITIONS (alat)
Al               0.0000000000        0.0000000000        0.0000000000    0   0   0
Al               0.0000000000        0.9999999974        0.0000000000    0   0   0
Al               0.0000000000        1.9999999949        0.0000000000    0   0   0
Al               0.9999999974        0.0000000000        0.0000000000    0   0   0
Al               0.9999999974        0.9999999974        0.0000000000    0   0   0
Al               0.9999999974        1.9999999949        0.0000000000    0   0   0
Al               1.9999999949        0.0000000000        0.0000000000    0   0   0
Al               1.9999999949        0.9999999974        0.0000000000    0   0   0
Al               1.9999999949        1.9999999949        0.0000000000    0   0   0
Al               0.4999999987        0.4999999987        0.7071067672    0   0   0
Al               0.4999999987        1.4999999963        0.7071067672    0   0   0
Al               0.4999999987        2.4999999936        0.7071067672    0   0   0
Al               1.4999999963        0.4999999987        0.7071067672    0   0   0
Al               1.4999999963        1.4999999963        0.7071067672    0   0   0
Al               1.4999999963        2.4999999936        0.7071067672    0   0   0
Al               2.4999999936        0.4999999987        0.7071067672    0   0   0
Al               2.4999999936        1.4999999963        0.7071067672    0   0   0
Al               2.4999999936        2.4999999936        0.7071067672    0   0   0
Al              -0.0008123725        0.0008123725        1.4335018654
Al              -0.0070847146        0.9999999974        1.4639176593
Al              -0.0008123725        1.9991876225        1.4334982697
Al               1.0008123699        0.0008123725        1.4334982697
Al               1.0070847121        0.9999999974        1.4639167006
Al               1.0008123699        1.9991876225        1.4334973110
Al               1.9999999949        0.0070847146        1.4639176593
Al               1.9999999949        0.9999999974        1.3898022407
Al               1.9999999949        1.9929152803        1.4639167006
Al               0.4999999987        0.4986659524        2.1808639396
Al               0.4999999987        1.5013340425        2.1808627516
Al               0.4999999987        2.4999999936        2.1586510295
Al               1.5135843551        0.5135843577        2.1776254675
Al               1.5135843551        1.4864156373        2.1776277250
Al               1.4986659499        2.4999999936        2.1808627516
Al               2.4864156348        0.5135843577        2.1776266555
Al               2.4864156348        1.4864156373        2.1776254675
Al               2.5013340400        2.4999999936        2.1808639396
O                1.9999999996        0.9999999998        2.4192622651    0   0   1
End final coordinates



     Writing all to output data dir ./tmp/Al.save/ :
     XML data file, charge density, pseudopotentials, collected wavefunctions

     init_run     :     18.47s CPU     20.60s WALL (       1 calls)
     electrons    :  10291.18s CPU  10848.27s WALL (      29 calls)
     update_pot   :     83.66s CPU     91.19s WALL (      28 calls)
     forces       :    352.46s CPU    387.83s WALL (      29 calls)

     Called by init_run:
     wfcinit      :     11.26s CPU     11.92s WALL (       1 calls)
     potinit      :      3.26s CPU      3.66s WALL (       1 calls)
     hinit0       :      0.98s CPU      1.14s WALL (       1 calls)

     Called by electrons:
     c_bands      :   5708.71s CPU   5769.07s WALL (     364 calls)
     sum_band     :   1627.67s CPU   1855.78s WALL (     364 calls)
     v_of_rho     :    389.49s CPU    443.39s WALL (     385 calls)
     newd         :    764.55s CPU    971.64s WALL (     385 calls)
     PAW_pot      :    670.99s CPU    671.27s WALL (     413 calls)
     mix_rho      :   1256.90s CPU   1280.33s WALL (     364 calls)

     Called by c_bands:
     init_us_2    :    157.87s CPU    166.06s WALL (     757 calls)
     cegterg      :   5238.14s CPU   5288.59s WALL (     364 calls)

     Called by *egterg:
     cdiaghg      :     13.24s CPU     13.30s WALL (    2842 calls)
     h_psi        :   3875.78s CPU   3900.25s WALL (    2879 calls)
     s_psi        :    717.89s CPU    719.19s WALL (    2879 calls)
     g_psi        :     10.22s CPU     10.26s WALL (    2514 calls)

     Called by h_psi:
     h_psi:calbec :    626.81s CPU    633.30s WALL (    2879 calls)
     vloc_psi     :   2517.20s CPU   2521.36s WALL (    2879 calls)
     add_vuspsi   :    717.86s CPU    719.47s WALL (    2879 calls)

     General routines
     calbec       :    864.56s CPU    873.12s WALL (    3387 calls)
     fft          :    177.66s CPU    177.91s WALL (    5302 calls)
     ffts         :    407.33s CPU    407.83s WALL (   40970 calls)
     fftw         :   2143.33s CPU   2145.04s WALL (  180372 calls)
     interpolate  :     23.71s CPU     24.33s WALL (     385 calls)

     Parallel routines

     PWSCF        :      3h 1m CPU      3h11m WALL


   This run was terminated on:  20:24:49  19May2025            

=------------------------------------------------------------------------------=
   JOB DONE.
=------------------------------------------------------------------------------=
