No protocol specified

     Program PWSCF v.7.3.1 starts on 19May2025 at 13:18:11 

     This program is part of the open-source Quantum ESPRESSO suite
     for quantum simulation of materials; please cite
         "P. Giannozzi et al., J. Phys.:Condens. Matter 21 395502 (2009);
         "P. Giannozzi et al., J. Phys.:Condens. Matter 29 465901 (2017);
         "P. Giannozzi et al., J. Chem. Phys. 152 154105 (2020);
          URL http://www.quantum-espresso.org", 
     in publications or presentations arising from this work. More details at
     http://www.quantum-espresso.org/quote

     Parallel version (MPI), running on     1 processors

     MPI processes distributed on     1 nodes
     22799 MiB available memory on the printing compute node when the environment starts

     Waiting for input...
     Reading input from standard input

     Current dimensions of program PWSCF are:
     Max number of different atomic species (ntypx) = 10
     Max number of k-points (npk) =  40000
     Max angular momentum in pseudopotentials (lmaxx) =  4
     file Al.pbe-n-kjpaw_psl.1.0.0.UPF: wavefunction(s)  3S 3P renormalized
     file O.pbe-n-kjpaw_psl.0.1.UPF: wavefunction(s)  2P renormalized

     gamma-point specific algorithms are used
     Message from routine setup:
     using ibrav=0 with symmetry is DISCOURAGED, use correct ibrav instead

     Subspace diagonalization in iterative solution of the eigenvalue problem:
     a serial algorithm will be used


     G-vector sticks info
     --------------------
     sticks:   dense  smooth     PW     G-vecs:    dense   smooth      PW
     Sum        6665    3341    845              1092149   386353   48331

     Using Slab Decomposition



     bravais-lattice index     =            0
     lattice parameter (alat)  =       5.3944  a.u.
     unit-cell volume          =   11302.2493 (a.u.)^3
     number of atoms/cell      =           37
     number of atomic types    =            2
     number of electrons       =       114.00
     number of Kohn-Sham states=           68
     kinetic-energy cutoff     =      40.0000  Ry
     charge density cutoff     =     320.0000  Ry
     scf convergence threshold =      1.0E-07
     mixing beta               =       0.5000
     number of iterations used =            8  local-TF  mixing
     energy convergence thresh.=      1.0E-04
     force convergence thresh. =      1.0E-03
     Exchange-correlation= SLA  PW   PBX  PBC
                           (   1   4   3   4   0   0   0)
     nstep                     =           50


     celldm(1)=   5.394412  celldm(2)=   0.000000  celldm(3)=   0.000000
     celldm(4)=   0.000000  celldm(5)=   0.000000  celldm(6)=   0.000000

     crystal axes: (cart. coord. in units of alat)
               a(1) = (   3.000000   0.000000   0.000000 )  
               a(2) = (   0.000000   3.000000   0.000000 )  
               a(3) = (   0.000000   0.000000   8.000000 )  

     reciprocal axes: (cart. coord. in units 2 pi/alat)
               b(1) = (  0.333333  0.000000  0.000000 )  
               b(2) = (  0.000000  0.333333  0.000000 )  
               b(3) = (  0.000000  0.000000  0.125000 )  


     PseudoPot. # 1 for Al read from file:
     ../../Pseudo/Al.pbe-n-kjpaw_psl.1.0.0.UPF
     MD5 check sum: dd5adf945272da8132fc805c9e56c2d6
     Pseudo is Projector augmented-wave + core cor, Zval =  3.0
     Generated using "atomic" code by A. Dal Corso  v.5.1
     Shape of augmentation charge: PSQ
     Using radial grid of 1135 points,  6 beta functions with: 
                l(1) =   0
                l(2) =   0
                l(3) =   1
                l(4) =   1
                l(5) =   2
                l(6) =   2
     Q(r) pseudized with 0 coefficients 


     PseudoPot. # 2 for O  read from file:
     ../../Pseudo/O.pbe-n-kjpaw_psl.0.1.UPF
     MD5 check sum: 0234752ac141de4415c5fc33072bef88
     Pseudo is Projector augmented-wave + core cor, Zval =  6.0
     Generated using "atomic" code by A. Dal Corso  v.5.0.99 svn rev. 10869
     Shape of augmentation charge: BESSEL
     Using radial grid of 1095 points,  4 beta functions with: 
                l(1) =   0
                l(2) =   0
                l(3) =   1
                l(4) =   1
     Q(r) pseudized with 0 coefficients 


     atomic species   valence    mass     pseudopotential
     Al                3.00     1.00000     Al( 1.00)
     O                 6.00     1.00000     O ( 1.00)

      8 Sym. Ops. (no inversion) found ( 6 have fractional translation)



   Cartesian axes

     site n.     atom                  positions (alat units)
         1        Al     tau(   1) = (   0.0000000   0.0000000   0.0000000  )
         2        Al     tau(   2) = (   0.0000000   1.0000000   0.0000000  )
         3        Al     tau(   3) = (   0.0000000   2.0000000   0.0000000  )
         4        Al     tau(   4) = (   1.0000000   0.0000000   0.0000000  )
         5        Al     tau(   5) = (   1.0000000   1.0000000   0.0000000  )
         6        Al     tau(   6) = (   1.0000000   2.0000000   0.0000000  )
         7        Al     tau(   7) = (   2.0000000   0.0000000   0.0000000  )
         8        Al     tau(   8) = (   2.0000000   1.0000000   0.0000000  )
         9        Al     tau(   9) = (   2.0000000   2.0000000   0.0000000  )
        10        Al     tau(  10) = (   0.5000000   0.5000000   0.7071068  )
        11        Al     tau(  11) = (   0.5000000   1.5000000   0.7071068  )
        12        Al     tau(  12) = (   0.5000000   2.5000000   0.7071068  )
        13        Al     tau(  13) = (   1.5000000   0.5000000   0.7071068  )
        14        Al     tau(  14) = (   1.5000000   1.5000000   0.7071068  )
        15        Al     tau(  15) = (   1.5000000   2.5000000   0.7071068  )
        16        Al     tau(  16) = (   2.5000000   0.5000000   0.7071068  )
        17        Al     tau(  17) = (   2.5000000   1.5000000   0.7071068  )
        18        Al     tau(  18) = (   2.5000000   2.5000000   0.7071068  )
        19        Al     tau(  19) = (   0.0000000   0.0000000   1.4307627  )
        20        Al     tau(  20) = (   0.0000000   1.0000000   1.4307591  )
        21        Al     tau(  21) = (   0.0000000   2.0000000   1.4307591  )
        22        Al     tau(  22) = (   1.0000000   0.0000000   1.4307591  )
        23        Al     tau(  23) = (   1.0000000   1.0000000   1.4307582  )
        24        Al     tau(  24) = (   1.0000000   2.0000000   1.4307582  )
        25        Al     tau(  25) = (   2.0000000   0.0000000   1.4307591  )
        26        Al     tau(  26) = (   2.0000000   1.0000000   1.4307582  )
        27        Al     tau(  27) = (   2.0000000   2.0000000   1.4307582  )
        28        Al     tau(  28) = (   0.5000000   0.5000000   2.1566262  )
        29        Al     tau(  29) = (   0.5000000   1.5000000   2.1566250  )
        30        Al     tau(  30) = (   0.5000000   2.5000000   2.1566262  )
        31        Al     tau(  31) = (   1.5000000   0.5000000   2.1566250  )
        32        Al     tau(  32) = (   1.5000000   1.5000000   2.1566273  )
        33        Al     tau(  33) = (   1.5000000   2.5000000   2.1566250  )
        34        Al     tau(  34) = (   2.5000000   0.5000000   2.1566262  )
        35        Al     tau(  35) = (   2.5000000   1.5000000   2.1566250  )
        36        Al     tau(  36) = (   2.5000000   2.5000000   2.1566262  )
        37        O      tau(  37) = (   2.0000000   1.0000000   2.4100000  )

     number of k points=     1  Marzari-Vanderbilt smearing, width (Ry)=  0.0500
                       cart. coord. in units 2pi/alat
        k(    1) = (   0.0000000   0.0000000   0.0000000), wk =   2.0000000

     Dense  grid:   546075 G-vectors     FFT dimensions: (  96,  96, 250)

     Smooth grid:   193177 G-vectors     FFT dimensions: (  72,  72, 180)

     Estimated max dynamical RAM per process >       3.03 GB

     Initial potential from superposition of free atoms

     starting charge     113.9176, renormalised to     114.0000

     negative rho (up, down):  5.120E-04 0.000E+00
     Starting wfcs are  148 randomized atomic wfcs
     Checking if some PAW data can be deallocated... 

     total cpu time spent up to now is       14.4 secs

     Self-consistent Calculation

     iteration #  1     ecut=    40.00 Ry     beta= 0.50
     Davidson diagonalization with overlap
     ethr =  1.00E-02,  avg # of iterations =  4.0

     negative rho (up, down):  5.027E-08 0.000E+00

     total cpu time spent up to now is       36.6 secs

     total energy              =   -1462.47979371 Ry
     estimated scf accuracy    <       4.20067327 Ry

     iteration #  2     ecut=    40.00 Ry     beta= 0.50
     Davidson diagonalization with overlap
     ethr =  3.68E-03,  avg # of iterations =  2.0

     total cpu time spent up to now is       56.3 secs

     total energy              =   -1462.33800825 Ry
     estimated scf accuracy    <       1.93858013 Ry

     iteration #  3     ecut=    40.00 Ry     beta= 0.50
     Davidson diagonalization with overlap
     ethr =  1.70E-03,  avg # of iterations =  4.0

     total cpu time spent up to now is       75.7 secs

     total energy              =   -1462.54241877 Ry
     estimated scf accuracy    <       0.15106724 Ry

     iteration #  4     ecut=    40.00 Ry     beta= 0.50
     Davidson diagonalization with overlap
     ethr =  1.33E-04,  avg # of iterations =  6.0

     total cpu time spent up to now is       97.7 secs

     total energy              =   -1462.57230580 Ry
     estimated scf accuracy    <       0.13511710 Ry

     iteration #  5     ecut=    40.00 Ry     beta= 0.50
     Davidson diagonalization with overlap
     ethr =  1.19E-04,  avg # of iterations =  2.0

     total cpu time spent up to now is      117.5 secs

     total energy              =   -1462.59409382 Ry
     estimated scf accuracy    <       0.16372799 Ry

     iteration #  6     ecut=    40.00 Ry     beta= 0.50
     Davidson diagonalization with overlap
     ethr =  1.19E-04,  avg # of iterations =  2.0

     total cpu time spent up to now is      136.2 secs

     total energy              =   -1462.58994719 Ry
     estimated scf accuracy    <       0.16078182 Ry

     iteration #  7     ecut=    40.00 Ry     beta= 0.50
     Davidson diagonalization with overlap
     ethr =  1.19E-04,  avg # of iterations =  1.0

     total cpu time spent up to now is      154.8 secs

     total energy              =   -1462.56217811 Ry
     estimated scf accuracy    <       0.09766952 Ry

     iteration #  8     ecut=    40.00 Ry     beta= 0.50
     Davidson diagonalization with overlap
     ethr =  8.57E-05,  avg # of iterations =  2.0

     total cpu time spent up to now is      176.2 secs

     total energy              =   -1462.58128125 Ry
     estimated scf accuracy    <       0.07390194 Ry

     iteration #  9     ecut=    40.00 Ry     beta= 0.50
     Davidson diagonalization with overlap
     ethr =  6.48E-05,  avg # of iterations =  1.0

     negative rho (up, down):  1.854E-02 0.000E+00

     total cpu time spent up to now is      196.3 secs

     total energy              =   -1462.56872469 Ry
     estimated scf accuracy    <       0.03446667 Ry

     iteration # 10     ecut=    40.00 Ry     beta= 0.50
     Davidson diagonalization with overlap
     ethr =  3.02E-05,  avg # of iterations =  5.0

     negative rho (up, down):  2.554E-02 0.000E+00

     total cpu time spent up to now is      218.7 secs

     total energy              =   -1462.58392055 Ry
     estimated scf accuracy    <       0.05676348 Ry

     iteration # 11     ecut=    40.00 Ry     beta= 0.50
     Davidson diagonalization with overlap
     ethr =  3.02E-05,  avg # of iterations =  1.0

     negative rho (up, down):  1.668E-02 0.000E+00

     total cpu time spent up to now is      238.9 secs

     total energy              =   -1462.57588494 Ry
     estimated scf accuracy    <       0.04135988 Ry

     iteration # 12     ecut=    40.00 Ry     beta= 0.50
     Davidson diagonalization with overlap
     ethr =  3.02E-05,  avg # of iterations =  2.0

     negative rho (up, down):  9.708E-03 0.000E+00

     total cpu time spent up to now is      259.4 secs

     total energy              =   -1462.57948615 Ry
     estimated scf accuracy    <       0.00064341 Ry

     iteration # 13     ecut=    40.00 Ry     beta= 0.50
     Davidson diagonalization with overlap
     ethr =  5.64E-07,  avg # of iterations = 18.0

     negative rho (up, down):  6.071E-03 0.000E+00

     total cpu time spent up to now is      287.5 secs

     total energy              =   -1462.57992665 Ry
     estimated scf accuracy    <       0.00173280 Ry

     iteration # 14     ecut=    40.00 Ry     beta= 0.50
     Davidson diagonalization with overlap
     ethr =  5.64E-07,  avg # of iterations =  4.0

     negative rho (up, down):  1.060E-03 0.000E+00

     total cpu time spent up to now is      309.6 secs

     total energy              =   -1462.58020318 Ry
     estimated scf accuracy    <       0.00034185 Ry

     iteration # 15     ecut=    40.00 Ry     beta= 0.50
     Davidson diagonalization with overlap
     ethr =  3.00E-07,  avg # of iterations =  2.0

     negative rho (up, down):  5.037E-04 0.000E+00

     total cpu time spent up to now is      330.2 secs

     total energy              =   -1462.58024374 Ry
     estimated scf accuracy    <       0.00001525 Ry

     iteration # 16     ecut=    40.00 Ry     beta= 0.50
     Davidson diagonalization with overlap
     c_bands:  1 eigenvalues not converged
     ethr =  1.34E-08,  avg # of iterations = 20.0

     negative rho (up, down):  4.534E-04 0.000E+00

     total cpu time spent up to now is      356.4 secs

     total energy              =   -1462.58025203 Ry
     estimated scf accuracy    <       0.00000465 Ry

     iteration # 17     ecut=    40.00 Ry     beta= 0.50
     Davidson diagonalization with overlap
     ethr =  4.08E-09,  avg # of iterations =  8.0

     negative rho (up, down):  4.399E-04 0.000E+00

     total cpu time spent up to now is      377.9 secs

     total energy              =   -1462.58025675 Ry
     estimated scf accuracy    <       0.00000364 Ry

     iteration # 18     ecut=    40.00 Ry     beta= 0.50
     Davidson diagonalization with overlap
     ethr =  3.19E-09,  avg # of iterations =  2.0

     negative rho (up, down):  5.009E-04 0.000E+00

     total cpu time spent up to now is      398.5 secs

     total energy              =   -1462.58025759 Ry
     estimated scf accuracy    <       0.00000014 Ry

     iteration # 19     ecut=    40.00 Ry     beta= 0.50
     Davidson diagonalization with overlap
     c_bands:  1 eigenvalues not converged
     ethr =  1.21E-10,  avg # of iterations = 20.0

     negative rho (up, down):  4.988E-04 0.000E+00

     total cpu time spent up to now is      427.5 secs

     total energy              =   -1462.58025757 Ry
     estimated scf accuracy    <       0.00000339 Ry

     iteration # 20     ecut=    40.00 Ry     beta= 0.50
     Davidson diagonalization with overlap
     ethr =  1.21E-10,  avg # of iterations = 10.0

     negative rho (up, down):  5.058E-04 0.000E+00

     total cpu time spent up to now is      451.1 secs

     total energy              =   -1462.58025780 Ry
     estimated scf accuracy    <       0.00000016 Ry

     iteration # 21     ecut=    40.00 Ry     beta= 0.50
     Davidson diagonalization with overlap
     ethr =  1.21E-10,  avg # of iterations =  2.0

     negative rho (up, down):  5.121E-04 0.000E+00

     total cpu time spent up to now is      468.8 secs

     End of self-consistent calculation

          k = 0.0000 0.0000 0.0000 ( 24166 PWs)   bands (ev):

   -19.1417 -10.2772  -8.9742  -8.3265  -8.3265  -8.2895  -8.2875  -7.2856
    -7.2856  -7.0290  -7.0288  -6.8579  -6.4819  -6.4819  -6.3464  -6.3079
    -5.9792  -5.9792  -5.2248  -5.0863  -5.0379  -5.0379  -4.9910  -4.9847
    -4.4202  -4.4202  -4.0538  -3.6578  -3.0724  -2.8593  -2.8593  -2.6919
    -2.4822  -2.4572  -2.4572  -2.2722  -2.2082  -1.9912  -1.9912  -1.8940
    -1.6789  -1.2969  -1.2005  -1.2005  -1.1714  -1.1555  -1.0342  -1.0342
    -0.9767  -0.3644  -0.2443  -0.2443  -0.1494  -0.0325  -0.0196  -0.0196
    -0.0063   0.0217   0.2153   0.2153   0.2559   0.3231   0.3698   0.3951
     0.3951   0.6947   0.9838   0.9838

     the Fermi energy is     0.1158 ev

!    total energy              =   -1462.58025783 Ry
     total all-electron energy =    -17632.567287 Ry
     estimated scf accuracy    <       0.00000001 Ry
     smearing contrib. (-TS)   =      -0.11233144 Ry
     internal energy E=F+TS    =   -1462.46792638 Ry

     The total energy is F=E-TS. E is the sum of the following terms:
     one-electron contribution =   -1683.80150507 Ry
     hartree contribution      =     871.44881255 Ry
     xc contribution           =     -98.58695521 Ry
     ewald contribution        =     706.34454528 Ry
     one-center paw contrib.   =   -1257.87282392 Ry

     convergence has been achieved in  21 iterations

     negative rho (up, down):  5.121E-04 0.000E+00

     Forces acting on atoms (cartesian axes, Ry/au):

     atom    1 type  1   force =    -0.00463774    0.00463774    0.01681966
     atom    2 type  1   force =     0.00187258    0.00000000    0.01576945
     atom    3 type  1   force =    -0.00463774   -0.00463774    0.01681966
     atom    4 type  1   force =     0.00463774    0.00463774    0.01681966
     atom    5 type  1   force =    -0.00187258    0.00000000    0.01576945
     atom    6 type  1   force =     0.00463774   -0.00463774    0.01681966
     atom    7 type  1   force =     0.00000000   -0.00187258    0.01576945
     atom    8 type  1   force =     0.00000000    0.00000000    0.01136688
     atom    9 type  1   force =     0.00000000    0.00187258    0.01576945
     atom   10 type  1   force =     0.00000000    0.00036484   -0.00433862
     atom   11 type  1   force =     0.00000000   -0.00036484   -0.00433862
     atom   12 type  1   force =     0.00000000    0.00000000   -0.00977409
     atom   13 type  1   force =    -0.00372257   -0.00372257   -0.00609878
     atom   14 type  1   force =    -0.00372257    0.00372257   -0.00609878
     atom   15 type  1   force =     0.00036484    0.00000000   -0.00433862
     atom   16 type  1   force =     0.00372257   -0.00372257   -0.00609878
     atom   17 type  1   force =     0.00372257    0.00372257   -0.00609878
     atom   18 type  1   force =    -0.00036484    0.00000000   -0.00433862
     atom   19 type  1   force =     0.00126187   -0.00126187    0.00139824
     atom   20 type  1   force =    -0.00393195   -0.00000000    0.01241412
     atom   21 type  1   force =     0.00126187    0.00126187    0.00139824
     atom   22 type  1   force =    -0.00126187   -0.00126187    0.00139824
     atom   23 type  1   force =     0.00393195    0.00000000    0.01241412
     atom   24 type  1   force =    -0.00126187    0.00126187    0.00139824
     atom   25 type  1   force =    -0.00000000    0.00393195    0.01241412
     atom   26 type  1   force =     0.00000000    0.00000000   -0.00226662
     atom   27 type  1   force =    -0.00000000   -0.00393195    0.01241412
     atom   28 type  1   force =     0.00000000    0.00419828   -0.01010743
     atom   29 type  1   force =    -0.00000000   -0.00419828   -0.01010743
     atom   30 type  1   force =     0.00000000    0.00000000   -0.02294047
     atom   31 type  1   force =     0.00942159    0.00942159   -0.00998870
     atom   32 type  1   force =     0.00942159   -0.00942159   -0.00998870
     atom   33 type  1   force =     0.00419828   -0.00000000   -0.01010743
     atom   34 type  1   force =    -0.00942159    0.00942159   -0.00998870
     atom   35 type  1   force =    -0.00942159   -0.00942159   -0.00998870
     atom   36 type  1   force =    -0.00419828    0.00000000   -0.01010743
     atom   37 type  2   force =     0.00000000    0.00000000   -0.03985753

     Total force =     0.066387     Total SCF correction =     0.000106

     BFGS Geometry Optimization
     Energy error            =      0.0E+00 Ry
     Gradient error          =      4.0E-02 Ry/Bohr

     number of scf cycles    =   1
     number of bfgs steps    =   0

     energy             new  =   -1462.5802578263 Ry

     new trust radius        =       0.0398575320 bohr
     new conv_thr            =       0.0000001000 Ry


ATOMIC_POSITIONS (alat)
Al               0.0000000000        0.0000000000        0.0000000000    0   0   0
Al               0.0000000000        0.9999999976        0.0000000000    0   0   0
Al               0.0000000000        1.9999999953        0.0000000000    0   0   0
Al               0.9999999976        0.0000000000        0.0000000000    0   0   0
Al               0.9999999976        0.9999999976        0.0000000000    0   0   0
Al               0.9999999976        1.9999999953        0.0000000000    0   0   0
Al               1.9999999953        0.0000000000        0.0000000000    0   0   0
Al               1.9999999953        0.9999999976        0.0000000000    0   0   0
Al               1.9999999953        1.9999999953        0.0000000000    0   0   0
Al               0.4999999988        0.4999999988        0.7071067673    0   0   0
Al               0.4999999988        1.4999999965        0.7071067673    0   0   0
Al               0.4999999988        2.4999999941        0.7071067673    0   0   0
Al               1.4999999965        0.4999999988        0.7071067673    0   0   0
Al               1.4999999965        1.4999999965        0.7071067673    0   0   0
Al               1.4999999965        2.4999999941        0.7071067673    0   0   0
Al               2.4999999941        0.4999999988        0.7071067673    0   0   0
Al               2.4999999941        1.4999999965        0.7071067673    0   0   0
Al               2.4999999941        2.4999999941        0.7071067673    0   0   0
Al               0.0002339224       -0.0002339224        1.4310219064
Al              -0.0007288931        0.9999999976        1.4330604008
Al               0.0002339224        2.0002339177        1.4310183107
Al               0.9997660752       -0.0002339224        1.4310183107
Al               1.0007288907        0.9999999976        1.4330594421
Al               0.9997660752        2.0002339177        1.4310173520
Al               1.9999999953        0.0007288931        1.4330604008
Al               1.9999999953        0.9999999976        1.4303379717
Al               1.9999999953        1.9992711022        1.4330594421
Al               0.4999999988        0.5007782643        2.1547525514
Al               0.4999999988        1.4992217310        2.1547513634
Al               0.4999999988        2.4999999941        2.1523735993
Al               1.5017465419        0.5017465442        2.1547733731
Al               1.5017465419        1.4982534511        2.1547756306
Al               1.5007782620        2.4999999941        2.1547513634
Al               2.4982534487        0.5017465442        2.1547745611
Al               2.4982534487        1.4982534511        2.1547733731
Al               2.4992217286        2.4999999941        2.1547525514
O                2.0000000000        1.0000000000        2.4026113299    0   0   1



     Writing config-only to output data dir ./tmp/Al.save/ :
     XML data file
     NEW-OLD atomic charge density approx. for the potential

     negative rho (up, down):  5.079E-04 0.000E+00

     total cpu time spent up to now is      492.4 secs

     Self-consistent Calculation

     iteration #  1     ecut=    40.00 Ry     beta= 0.50
     Davidson diagonalization with overlap
     ethr =  1.00E-06,  avg # of iterations =  6.0

     negative rho (up, down):  4.879E-04 0.000E+00

     total cpu time spent up to now is      516.4 secs

     total energy              =   -1462.58449486 Ry
     estimated scf accuracy    <       0.00045419 Ry

     iteration #  2     ecut=    40.00 Ry     beta= 0.50
     Davidson diagonalization with overlap
     ethr =  3.98E-07,  avg # of iterations =  2.0

     negative rho (up, down):  4.065E-04 0.000E+00

     total cpu time spent up to now is      536.7 secs

     total energy              =   -1462.58445406 Ry
     estimated scf accuracy    <       0.00019460 Ry

     iteration #  3     ecut=    40.00 Ry     beta= 0.50
     Davidson diagonalization with overlap
     ethr =  1.71E-07,  avg # of iterations =  7.0

     negative rho (up, down):  3.792E-04 0.000E+00

     total cpu time spent up to now is      558.0 secs

     total energy              =   -1462.58448466 Ry
     estimated scf accuracy    <       0.00002100 Ry

     iteration #  4     ecut=    40.00 Ry     beta= 0.50
     Davidson diagonalization with overlap
     ethr =  1.84E-08,  avg # of iterations =  8.0

     negative rho (up, down):  3.564E-04 0.000E+00

     total cpu time spent up to now is      580.8 secs

     total energy              =   -1462.58448744 Ry
     estimated scf accuracy    <       0.00001022 Ry

     iteration #  5     ecut=    40.00 Ry     beta= 0.50
     Davidson diagonalization with overlap
     ethr =  8.96E-09,  avg # of iterations =  6.0

     negative rho (up, down):  3.574E-04 0.000E+00

     total cpu time spent up to now is      601.8 secs

     total energy              =   -1462.58448749 Ry
     estimated scf accuracy    <       0.00000255 Ry

     iteration #  6     ecut=    40.00 Ry     beta= 0.50
     Davidson diagonalization with overlap
     ethr =  2.24E-09,  avg # of iterations =  7.0

     negative rho (up, down):  3.868E-04 0.000E+00

     total cpu time spent up to now is      624.7 secs

     total energy              =   -1462.58448831 Ry
     estimated scf accuracy    <       0.00000041 Ry

     iteration #  7     ecut=    40.00 Ry     beta= 0.50
     Davidson diagonalization with overlap
     ethr =  3.61E-10,  avg # of iterations = 13.0

     negative rho (up, down):  4.192E-04 0.000E+00

     total cpu time spent up to now is      648.3 secs

     total energy              =   -1462.58448848 Ry
     estimated scf accuracy    <       0.00000022 Ry

     iteration #  8     ecut=    40.00 Ry     beta= 0.50
     Davidson diagonalization with overlap
     ethr =  1.89E-10,  avg # of iterations =  6.0

     negative rho (up, down):  5.105E-04 0.000E+00

     total cpu time spent up to now is      666.8 secs

     End of self-consistent calculation

          k = 0.0000 0.0000 0.0000 ( 24166 PWs)   bands (ev):

   -19.2529 -10.2751  -8.9765  -8.3293  -8.3292  -8.2948  -8.2812  -7.3152
    -7.3152  -7.0337  -7.0335  -6.8555  -6.5023  -6.5023  -6.3489  -6.3032
    -6.0071  -6.0071  -5.2510  -5.0822  -5.0328  -5.0328  -4.9830  -4.9808
    -4.4368  -4.4368  -4.0447  -3.6859  -3.0586  -2.8558  -2.8558  -2.7000
    -2.4839  -2.4538  -2.4538  -2.2648  -2.2003  -1.9868  -1.9868  -1.8927
    -1.6708  -1.3079  -1.2031  -1.2031  -1.1677  -1.1495  -1.0346  -1.0346
    -0.9782  -0.3536  -0.2391  -0.2391  -0.1409  -0.0424  -0.0174  -0.0173
    -0.0053   0.0290   0.2198   0.2198   0.2561   0.3265   0.3760   0.3991
     0.3991   0.6955   0.9920   0.9920

     the Fermi energy is     0.1197 ev

!    total energy              =   -1462.58448855 Ry
     total all-electron energy =    -17632.571518 Ry
     estimated scf accuracy    <       0.00000009 Ry
     smearing contrib. (-TS)   =      -0.11351019 Ry
     internal energy E=F+TS    =   -1462.47097836 Ry

     The total energy is F=E-TS. E is the sum of the following terms:
     one-electron contribution =   -1686.60706567 Ry
     hartree contribution      =     872.85336873 Ry
     xc contribution           =     -98.61049918 Ry
     ewald contribution        =     707.76777628 Ry
     one-center paw contrib.   =   -1257.87455851 Ry

     convergence has been achieved in   8 iterations

     negative rho (up, down):  5.105E-04 0.000E+00

     Forces acting on atoms (cartesian axes, Ry/au):

     atom    1 type  1   force =    -0.00456581    0.00456581    0.01692813
     atom    2 type  1   force =     0.00204537    0.00000000    0.01610393
     atom    3 type  1   force =    -0.00456581   -0.00456581    0.01692813
     atom    4 type  1   force =     0.00456581    0.00456581    0.01692813
     atom    5 type  1   force =    -0.00204537    0.00000000    0.01610393
     atom    6 type  1   force =     0.00456581   -0.00456581    0.01692813
     atom    7 type  1   force =    -0.00000000   -0.00204537    0.01610393
     atom    8 type  1   force =     0.00000000    0.00000000    0.01160748
     atom    9 type  1   force =     0.00000000    0.00204537    0.01610393
     atom   10 type  1   force =    -0.00000000    0.00061492   -0.00426601
     atom   11 type  1   force =     0.00000000   -0.00061492   -0.00426601
     atom   12 type  1   force =     0.00000000    0.00000000   -0.01005304
     atom   13 type  1   force =    -0.00385764   -0.00385764   -0.00625072
     atom   14 type  1   force =    -0.00385764    0.00385764   -0.00625072
     atom   15 type  1   force =     0.00061492    0.00000000   -0.00426601
     atom   16 type  1   force =     0.00385764   -0.00385764   -0.00625072
     atom   17 type  1   force =     0.00385764    0.00385764   -0.00625072
     atom   18 type  1   force =    -0.00061492    0.00000000   -0.00426601
     atom   19 type  1   force =     0.00097270   -0.00097270    0.00132715
     atom   20 type  1   force =    -0.00353479    0.00000000    0.01153164
     atom   21 type  1   force =     0.00097270    0.00097270    0.00132715
     atom   22 type  1   force =    -0.00097270   -0.00097270    0.00132715
     atom   23 type  1   force =     0.00353479    0.00000000    0.01153164
     atom   24 type  1   force =    -0.00097270    0.00097270    0.00132715
     atom   25 type  1   force =     0.00000000    0.00353479    0.01153164
     atom   26 type  1   force =     0.00000000    0.00000000   -0.00296417
     atom   27 type  1   force =     0.00000000   -0.00353479    0.01153164
     atom   28 type  1   force =    -0.00000000    0.00395262   -0.00981061
     atom   29 type  1   force =     0.00000000   -0.00395262   -0.00981061
     atom   30 type  1   force =     0.00000000    0.00000000   -0.02239546
     atom   31 type  1   force =     0.00753675    0.00753675   -0.01065239
     atom   32 type  1   force =     0.00753675   -0.00753675   -0.01065239
     atom   33 type  1   force =     0.00395262    0.00000000   -0.00981061
     atom   34 type  1   force =    -0.00753675    0.00753675   -0.01065239
     atom   35 type  1   force =    -0.00753675   -0.00753675   -0.01065239
     atom   36 type  1   force =    -0.00395262   -0.00000000   -0.00981061
     atom   37 type  2   force =     0.00000000    0.00000000   -0.03583922

     Total force =     0.061214     Total SCF correction =     0.000389
     Energy error            =      4.2E-03 Ry
     Gradient error          =      3.6E-02 Ry/Bohr

     number of scf cycles    =   2
     number of bfgs steps    =   1

     energy             old  =   -1462.5802578263 Ry
     energy             new  =   -1462.5844885485 Ry

     CASE: energy            _new < energy            _old


     WARNING: bfgs curvature condition failed, Theta= 0.870
     new trust radius        =       0.0438432851 bohr
     new conv_thr            =       0.0000000358 Ry


ATOMIC_POSITIONS (alat)
Al               0.0000000000        0.0000000000        0.0000000000    0   0   0
Al               0.0000000000        0.9999999976        0.0000000000    0   0   0
Al               0.0000000000        1.9999999953        0.0000000000    0   0   0
Al               0.9999999976        0.0000000000        0.0000000000    0   0   0
Al               0.9999999976        0.9999999976        0.0000000000    0   0   0
Al               0.9999999976        1.9999999953        0.0000000000    0   0   0
Al               1.9999999953        0.0000000000        0.0000000000    0   0   0
Al               1.9999999953        0.9999999976        0.0000000000    0   0   0
Al               1.9999999953        1.9999999953        0.0000000000    0   0   0
Al               0.4999999988        0.4999999988        0.7071067673    0   0   0
Al               0.4999999988        1.4999999965        0.7071067673    0   0   0
Al               0.4999999988        2.4999999941        0.7071067673    0   0   0
Al               1.4999999965        0.4999999988        0.7071067673    0   0   0
Al               1.4999999965        1.4999999965        0.7071067673    0   0   0
Al               1.4999999965        2.4999999941        0.7071067673    0   0   0
Al               2.4999999941        0.4999999988        0.7071067673    0   0   0
Al               2.4999999941        1.4999999965        0.7071067673    0   0   0
Al               2.4999999941        2.4999999941        0.7071067673    0   0   0
Al               0.0004566873       -0.0004566873        1.4313219343
Al              -0.0015305141        0.9999999976        1.4356705573
Al               0.0004566873        2.0004566827        1.4313183386
Al               0.9995433103       -0.0004566873        1.4313183386
Al               1.0015305117        0.9999999976        1.4356695986
Al               0.9995433103        2.0004566827        1.4313173799
Al               1.9999999953        0.0015305141        1.4356705573
Al               1.9999999953        0.9999999976        1.4296782134
Al               1.9999999953        1.9984694812        1.4356695986
Al               0.4999999988        0.5016722439        2.1525374324
Al               0.4999999988        1.4983277514        2.1525362444
Al               0.4999999988        2.4999999941        2.1473185738
Al               1.5034682799        0.5034682822        2.1523801095
Al               1.5034682799        1.4965317131        2.1523823670
Al               1.5016722416        2.4999999941        2.1525362444
Al               2.4965317107        0.5034682822        2.1523812975
Al               2.4965317107        1.4965317131        2.1523801095
Al               2.4983277490        2.4999999941        2.1525374324
O                2.0000000000        1.0000000000        2.3944837928    0   0   1



     Writing config-only to output data dir ./tmp/Al.save/ :
     XML data file
     NEW-OLD atomic charge density approx. for the potential

     negative rho (up, down):  5.060E-04 0.000E+00

     total cpu time spent up to now is      690.3 secs

     Self-consistent Calculation

     iteration #  1     ecut=    40.00 Ry     beta= 0.50
     Davidson diagonalization with overlap
     ethr =  1.00E-06,  avg # of iterations =  6.0

     negative rho (up, down):  4.614E-04 0.000E+00

     total cpu time spent up to now is      715.3 secs

     total energy              =   -1462.58887113 Ry
     estimated scf accuracy    <       0.00061848 Ry

     iteration #  2     ecut=    40.00 Ry     beta= 0.50
     Davidson diagonalization with overlap
     ethr =  5.43E-07,  avg # of iterations =  2.0

     negative rho (up, down):  3.670E-04 0.000E+00

     total cpu time spent up to now is      735.6 secs

     total energy              =   -1462.58881427 Ry
     estimated scf accuracy    <       0.00022727 Ry

     iteration #  3     ecut=    40.00 Ry     beta= 0.50
     Davidson diagonalization with overlap
     ethr =  1.99E-07,  avg # of iterations =  6.0

     negative rho (up, down):  3.630E-04 0.000E+00

     total cpu time spent up to now is      757.5 secs

     total energy              =   -1462.58885549 Ry
     estimated scf accuracy    <       0.00002619 Ry

     iteration #  4     ecut=    40.00 Ry     beta= 0.50
     Davidson diagonalization with overlap
     ethr =  2.30E-08,  avg # of iterations =  7.0

     negative rho (up, down):  3.532E-04 0.000E+00

     total cpu time spent up to now is      779.7 secs

     total energy              =   -1462.58885791 Ry
     estimated scf accuracy    <       0.00000811 Ry

     iteration #  5     ecut=    40.00 Ry     beta= 0.50
     Davidson diagonalization with overlap
     ethr =  7.11E-09,  avg # of iterations =  4.0

     negative rho (up, down):  3.624E-04 0.000E+00

     total cpu time spent up to now is      801.1 secs

     total energy              =   -1462.58885897 Ry
     estimated scf accuracy    <       0.00000101 Ry

     iteration #  6     ecut=    40.00 Ry     beta= 0.50
     Davidson diagonalization with overlap
     ethr =  8.83E-10,  avg # of iterations =  9.0

     negative rho (up, down):  3.908E-04 0.000E+00

     total cpu time spent up to now is      824.4 secs

     total energy              =   -1462.58885939 Ry
     estimated scf accuracy    <       0.00000030 Ry

     iteration #  7     ecut=    40.00 Ry     beta= 0.50
     Davidson diagonalization with overlap
     ethr =  2.64E-10,  avg # of iterations =  6.0

     negative rho (up, down):  4.286E-04 0.000E+00

     total cpu time spent up to now is      846.0 secs

     total energy              =   -1462.58885951 Ry
     estimated scf accuracy    <       0.00000020 Ry

     iteration #  8     ecut=    40.00 Ry     beta= 0.50
     Davidson diagonalization with overlap
     ethr =  1.79E-10,  avg # of iterations =  7.0

     negative rho (up, down):  4.331E-04 0.000E+00

     total cpu time spent up to now is      866.6 secs

     total energy              =   -1462.58885954 Ry
     estimated scf accuracy    <       0.00000008 Ry

     iteration #  9     ecut=    40.00 Ry     beta= 0.50
     Davidson diagonalization with overlap
     ethr =  7.21E-11,  avg # of iterations =  6.0

     negative rho (up, down):  4.678E-04 0.000E+00

     total cpu time spent up to now is      887.5 secs

     total energy              =   -1462.58885955 Ry
     estimated scf accuracy    <       0.00000005 Ry

     iteration # 10     ecut=    40.00 Ry     beta= 0.50
     Davidson diagonalization with overlap
     ethr =  4.61E-11,  avg # of iterations =  8.0

     negative rho (up, down):  5.105E-04 0.000E+00

     total cpu time spent up to now is      906.4 secs

     End of self-consistent calculation

          k = 0.0000 0.0000 0.0000 ( 24166 PWs)   bands (ev):

   -19.3667 -10.2723  -8.9788  -8.3328  -8.3328  -8.3002  -8.2740  -7.3485
    -7.3485  -7.0391  -7.0386  -6.8506  -6.5238  -6.5238  -6.3516  -6.2980
    -6.0307  -6.0307  -5.2782  -5.0781  -5.0271  -5.0271  -4.9799  -4.9686
    -4.4515  -4.4515  -4.0336  -3.7133  -3.0429  -2.8511  -2.8511  -2.7079
    -2.4852  -2.4496  -2.4496  -2.2551  -2.1907  -1.9806  -1.9806  -1.8895
    -1.6601  -1.3192  -1.2060  -1.2060  -1.1632  -1.1429  -1.0342  -1.0342
    -0.9795  -0.3411  -0.2327  -0.2327  -0.1302  -0.0526  -0.0137  -0.0137
    -0.0048   0.0381   0.2252   0.2252   0.2568   0.3313   0.3842   0.4043
     0.4043   0.6982   1.0021   1.0021

     the Fermi energy is     0.1246 ev

!    total energy              =   -1462.58885956 Ry
     total all-electron energy =    -17632.575889 Ry
     estimated scf accuracy    <       0.00000001 Ry
     smearing contrib. (-TS)   =      -0.11478281 Ry
     internal energy E=F+TS    =   -1462.47407675 Ry

     The total energy is F=E-TS. E is the sum of the following terms:
     one-electron contribution =   -1689.84033866 Ry
     hartree contribution      =     874.46944028 Ry
     xc contribution           =     -98.63790549 Ry
     ewald contribution        =     709.41151503 Ry
     one-center paw contrib.   =   -1257.87678791 Ry

     convergence has been achieved in  10 iterations

     negative rho (up, down):  5.105E-04 0.000E+00

     Forces acting on atoms (cartesian axes, Ry/au):

     atom    1 type  1   force =    -0.00448646    0.00448646    0.01706855
     atom    2 type  1   force =     0.00222561   -0.00000000    0.01648882
     atom    3 type  1   force =    -0.00448646   -0.00448646    0.01706855
     atom    4 type  1   force =     0.00448646    0.00448646    0.01706855
     atom    5 type  1   force =    -0.00222561    0.00000000    0.01648882
     atom    6 type  1   force =     0.00448646   -0.00448646    0.01706855
     atom    7 type  1   force =    -0.00000000   -0.00222561    0.01648882
     atom    8 type  1   force =     0.00000000    0.00000000    0.01189633
     atom    9 type  1   force =    -0.00000000    0.00222561    0.01648882
     atom   10 type  1   force =     0.00000000    0.00087708   -0.00419604
     atom   11 type  1   force =     0.00000000   -0.00087708   -0.00419604
     atom   12 type  1   force =     0.00000000    0.00000000   -0.01037637
     atom   13 type  1   force =    -0.00400770   -0.00400770   -0.00641908
     atom   14 type  1   force =    -0.00400770    0.00400770   -0.00641908
     atom   15 type  1   force =     0.00087708    0.00000000   -0.00419604
     atom   16 type  1   force =     0.00400770   -0.00400770   -0.00641908
     atom   17 type  1   force =     0.00400770    0.00400770   -0.00641908
     atom   18 type  1   force =    -0.00087708   -0.00000000   -0.00419604
     atom   19 type  1   force =     0.00066427   -0.00066427    0.00121312
     atom   20 type  1   force =    -0.00308909    0.00000000    0.01043786
     atom   21 type  1   force =     0.00066427    0.00066427    0.00121312
     atom   22 type  1   force =    -0.00066427   -0.00066427    0.00121312
     atom   23 type  1   force =     0.00308909   -0.00000000    0.01043786
     atom   24 type  1   force =    -0.00066427    0.00066427    0.00121312
     atom   25 type  1   force =    -0.00000000    0.00308909    0.01043786
     atom   26 type  1   force =     0.00000000    0.00000000   -0.00369044
     atom   27 type  1   force =     0.00000000   -0.00308909    0.01043786
     atom   28 type  1   force =    -0.00000000    0.00361253   -0.00947043
     atom   29 type  1   force =     0.00000000   -0.00361253   -0.00947043
     atom   30 type  1   force =     0.00000000    0.00000000   -0.02170037
     atom   31 type  1   force =     0.00554619    0.00554619   -0.01125647
     atom   32 type  1   force =     0.00554619   -0.00554619   -0.01125647
     atom   33 type  1   force =     0.00361253    0.00000000   -0.00947043
     atom   34 type  1   force =    -0.00554619    0.00554619   -0.01125647
     atom   35 type  1   force =    -0.00554619   -0.00554619   -0.01125647
     atom   36 type  1   force =    -0.00361253   -0.00000000   -0.00947043
     atom   37 type  2   force =     0.00000000    0.00000000   -0.03159447

     Total force =     0.055946     Total SCF correction =     0.000121
     Energy error            =      4.4E-03 Ry
     Gradient error          =      3.2E-02 Ry/Bohr

     number of scf cycles    =   3
     number of bfgs steps    =   2

     energy             old  =   -1462.5844885485 Ry
     energy             new  =   -1462.5888595616 Ry

     CASE: energy            _new < energy            _old

     new trust radius        =       0.0657649277 bohr
     new conv_thr            =       0.0000000316 Ry


ATOMIC_POSITIONS (alat)
Al               0.0000000000        0.0000000000        0.0000000000    0   0   0
Al               0.0000000000        0.9999999976        0.0000000000    0   0   0
Al               0.0000000000        1.9999999953        0.0000000000    0   0   0
Al               0.9999999976        0.0000000000        0.0000000000    0   0   0
Al               0.9999999976        0.9999999976        0.0000000000    0   0   0
Al               0.9999999976        1.9999999953        0.0000000000    0   0   0
Al               1.9999999953        0.0000000000        0.0000000000    0   0   0
Al               1.9999999953        0.9999999976        0.0000000000    0   0   0
Al               1.9999999953        1.9999999953        0.0000000000    0   0   0
Al               0.4999999988        0.4999999988        0.7071067673    0   0   0
Al               0.4999999988        1.4999999965        0.7071067673    0   0   0
Al               0.4999999988        2.4999999941        0.7071067673    0   0   0
Al               1.4999999965        0.4999999988        0.7071067673    0   0   0
Al               1.4999999965        1.4999999965        0.7071067673    0   0   0
Al               1.4999999965        2.4999999941        0.7071067673    0   0   0
Al               2.4999999941        0.4999999988        0.7071067673    0   0   0
Al               2.4999999941        1.4999999965        0.7071067673    0   0   0
Al               2.4999999941        2.4999999941        0.7071067673    0   0   0
Al               0.0002991342       -0.0002991342        1.4318591551
Al              -0.0026234394        0.9999999976        1.4401133807
Al               0.0002991342        2.0002991294        1.4318555594
Al               0.9997008634       -0.0002991342        1.4318555594
Al               1.0026234370        0.9999999976        1.4401124220
Al               0.9997008634        2.0002991294        1.4318546007
Al               1.9999999953        0.0026234394        1.4401133807
Al               1.9999999953        0.9999999976        1.4260421863
Al               1.9999999953        1.9973765558        1.4401124220
Al               0.4999999988        0.5032769250        2.1472807915
Al               0.4999999988        1.4967230703        2.1472796035
Al               0.4999999988        2.4999999941        2.1351272682
Al               1.5032378632        0.5032378655        2.1442787677
Al               1.5032378632        1.4967621298        2.1442810252
Al               1.5032769227        2.4999999941        2.1472796035
Al               2.4967621274        0.5032378655        2.1442799557
Al               2.4967621274        1.4967621298        2.1442787677
Al               2.4967230679        2.4999999941        2.1472807915
O                2.0000000000        1.0000000000        2.3826813411    0   0   1



     Writing config-only to output data dir ./tmp/Al.save/ :
     XML data file
     NEW-OLD atomic charge density approx. for the potential

     negative rho (up, down):  5.100E-04 0.000E+00

     total cpu time spent up to now is      930.0 secs

     Self-consistent Calculation

     iteration #  1     ecut=    40.00 Ry     beta= 0.50
     Davidson diagonalization with overlap
     ethr =  1.00E-06,  avg # of iterations = 12.0

     negative rho (up, down):  4.215E-04 0.000E+00

     total cpu time spent up to now is      958.1 secs

     total energy              =   -1462.59625603 Ry
     estimated scf accuracy    <       0.00547742 Ry

     iteration #  2     ecut=    40.00 Ry     beta= 0.50
     Davidson diagonalization with overlap
     ethr =  4.80E-06,  avg # of iterations =  1.0

     negative rho (up, down):  2.754E-04 0.000E+00

     total cpu time spent up to now is      977.9 secs

     total energy              =   -1462.59601085 Ry
     estimated scf accuracy    <       0.00155884 Ry

     iteration #  3     ecut=    40.00 Ry     beta= 0.50
     Davidson diagonalization with overlap
     ethr =  1.37E-06,  avg # of iterations =  6.0

     negative rho (up, down):  2.577E-04 0.000E+00

     total cpu time spent up to now is      999.7 secs

     total energy              =   -1462.59621059 Ry
     estimated scf accuracy    <       0.00020096 Ry

     iteration #  4     ecut=    40.00 Ry     beta= 0.50
     Davidson diagonalization with overlap
     ethr =  1.76E-07,  avg # of iterations =  5.0

     negative rho (up, down):  2.391E-04 0.000E+00

     total cpu time spent up to now is     1020.9 secs

     total energy              =   -1462.59623290 Ry
     estimated scf accuracy    <       0.00002901 Ry

     iteration #  5     ecut=    40.00 Ry     beta= 0.50
     Davidson diagonalization with overlap
     ethr =  2.54E-08,  avg # of iterations =  9.0

     negative rho (up, down):  2.472E-04 0.000E+00

     total cpu time spent up to now is     1044.6 secs

     total energy              =   -1462.59623559 Ry
     estimated scf accuracy    <       0.00008693 Ry

     iteration #  6     ecut=    40.00 Ry     beta= 0.50
     Davidson diagonalization with overlap
     ethr =  2.54E-08,  avg # of iterations =  6.0

     negative rho (up, down):  2.769E-04 0.000E+00

     total cpu time spent up to now is     1065.9 secs

     total energy              =   -1462.59624061 Ry
     estimated scf accuracy    <       0.00000232 Ry

     iteration #  7     ecut=    40.00 Ry     beta= 0.50
     Davidson diagonalization with overlap
     ethr =  2.03E-09,  avg # of iterations =  9.0

     negative rho (up, down):  3.284E-04 0.000E+00

     total cpu time spent up to now is     1089.8 secs

     total energy              =   -1462.59624160 Ry
     estimated scf accuracy    <       0.00000472 Ry

     iteration #  8     ecut=    40.00 Ry     beta= 0.50
     Davidson diagonalization with overlap
     ethr =  2.03E-09,  avg # of iterations =  7.0

     negative rho (up, down):  3.555E-04 0.000E+00

     total cpu time spent up to now is     1111.3 secs

     total energy              =   -1462.59624215 Ry
     estimated scf accuracy    <       0.00000071 Ry

     iteration #  9     ecut=    40.00 Ry     beta= 0.50
     Davidson diagonalization with overlap
     ethr =  6.21E-10,  avg # of iterations =  2.0

     negative rho (up, down):  4.316E-04 0.000E+00

     total cpu time spent up to now is     1131.5 secs

     total energy              =   -1462.59624246 Ry
     estimated scf accuracy    <       0.00000031 Ry

     iteration # 10     ecut=    40.00 Ry     beta= 0.50
     Davidson diagonalization with overlap
     ethr =  2.71E-10,  avg # of iterations =  7.0

     negative rho (up, down):  4.698E-04 0.000E+00

     total cpu time spent up to now is     1152.9 secs

     total energy              =   -1462.59624252 Ry
     estimated scf accuracy    <       0.00000013 Ry

     iteration # 11     ecut=    40.00 Ry     beta= 0.50
     Davidson diagonalization with overlap
     ethr =  1.12E-10,  avg # of iterations =  7.0

     negative rho (up, down):  4.968E-04 0.000E+00

     total cpu time spent up to now is     1174.9 secs

     total energy              =   -1462.59624255 Ry
     estimated scf accuracy    <       0.00000003 Ry

     iteration # 12     ecut=    40.00 Ry     beta= 0.50
     Davidson diagonalization with overlap
     ethr =  3.05E-11,  avg # of iterations =  5.0

     negative rho (up, down):  5.011E-04 0.000E+00

     total cpu time spent up to now is     1195.9 secs

     total energy              =   -1462.59624255 Ry
     estimated scf accuracy    <       0.00000004 Ry

     iteration # 13     ecut=    40.00 Ry     beta= 0.50
     Davidson diagonalization with overlap
     ethr =  3.05E-11,  avg # of iterations =  1.0

     negative rho (up, down):  5.120E-04 0.000E+00

     total cpu time spent up to now is     1213.0 secs

     End of self-consistent calculation

          k = 0.0000 0.0000 0.0000 ( 24166 PWs)   bands (ev):

   -19.3993 -10.2777  -8.9937  -8.3457  -8.3457  -8.3134  -8.2723  -7.3675
    -7.3675  -7.0579  -7.0481  -6.8414  -6.5390  -6.5390  -6.3584  -6.3067
    -6.0295  -6.0295  -5.2944  -5.0940  -5.0273  -5.0273  -4.9717  -4.9531
    -4.4565  -4.4565  -4.0142  -3.7153  -3.0274  -2.8470  -2.8470  -2.7244
    -2.4915  -2.4515  -2.4515  -2.2384  -2.1774  -1.9694  -1.9694  -1.8778
    -1.6377  -1.3372  -1.2243  -1.2243  -1.1644  -1.1475  -1.0367  -1.0367
    -0.9931  -0.3291  -0.2236  -0.2236  -0.1106  -0.0731  -0.0264  -0.0076
    -0.0076   0.0517   0.2214   0.2214   0.2491   0.3359   0.4023   0.4089
     0.4089   0.7117   1.0161   1.0161

     the Fermi energy is     0.1284 ev

!    total energy              =   -1462.59624253 Ry
     total all-electron energy =    -17632.583272 Ry
     estimated scf accuracy    <       0.00000002 Ry
     smearing contrib. (-TS)   =      -0.11729810 Ry
     internal energy E=F+TS    =   -1462.47894443 Ry

     The total energy is F=E-TS. E is the sum of the following terms:
     one-electron contribution =   -1696.51694123 Ry
     hartree contribution      =     877.83249108 Ry
     xc contribution           =     -98.69081171 Ry
     ewald contribution        =     712.77943768 Ry
     one-center paw contrib.   =   -1257.88312025 Ry

     convergence has been achieved in  13 iterations

     negative rho (up, down):  5.120E-04 0.000E+00

     Forces acting on atoms (cartesian axes, Ry/au):

     atom    1 type  1   force =    -0.00439268    0.00439268    0.01750958
     atom    2 type  1   force =     0.00250138   -0.00000000    0.01730502
     atom    3 type  1   force =    -0.00439268   -0.00439268    0.01750958
     atom    4 type  1   force =     0.00439268    0.00439268    0.01750958
     atom    5 type  1   force =    -0.00250138    0.00000000    0.01730502
     atom    6 type  1   force =     0.00439268   -0.00439268    0.01750958
     atom    7 type  1   force =    -0.00000000   -0.00250138    0.01730502
     atom    8 type  1   force =     0.00000000    0.00000000    0.01259603
     atom    9 type  1   force =     0.00000000    0.00250138    0.01730502
     atom   10 type  1   force =    -0.00000000    0.00118735   -0.00429960
     atom   11 type  1   force =     0.00000000   -0.00118735   -0.00429960
     atom   12 type  1   force =     0.00000000    0.00000000   -0.01116002
     atom   13 type  1   force =    -0.00438252   -0.00438252   -0.00681509
     atom   14 type  1   force =    -0.00438252    0.00438252   -0.00681509
     atom   15 type  1   force =     0.00118735    0.00000000   -0.00429960
     atom   16 type  1   force =     0.00438252   -0.00438252   -0.00681509
     atom   17 type  1   force =     0.00438252    0.00438252   -0.00681509
     atom   18 type  1   force =    -0.00118735   -0.00000000   -0.00429960
     atom   19 type  1   force =     0.00047058   -0.00047058    0.00075067
     atom   20 type  1   force =    -0.00229668   -0.00000000    0.00812193
     atom   21 type  1   force =     0.00047058    0.00047058    0.00075067
     atom   22 type  1   force =    -0.00047058   -0.00047058    0.00075067
     atom   23 type  1   force =     0.00229668    0.00000000    0.00812193
     atom   24 type  1   force =    -0.00047058    0.00047058    0.00075067
     atom   25 type  1   force =     0.00000000    0.00229668    0.00812193
     atom   26 type  1   force =     0.00000000    0.00000000   -0.00257997
     atom   27 type  1   force =     0.00000000   -0.00229668    0.00812193
     atom   28 type  1   force =     0.00000000    0.00254002   -0.00906179
     atom   29 type  1   force =     0.00000000   -0.00254002   -0.00906179
     atom   30 type  1   force =     0.00000000    0.00000000   -0.02012931
     atom   31 type  1   force =     0.00529854    0.00529854   -0.01084794
     atom   32 type  1   force =     0.00529854   -0.00529854   -0.01084794
     atom   33 type  1   force =     0.00254002    0.00000000   -0.00906179
     atom   34 type  1   force =    -0.00529854    0.00529854   -0.01084794
     atom   35 type  1   force =    -0.00529854   -0.00529854   -0.01084794
     atom   36 type  1   force =    -0.00254002   -0.00000000   -0.00906179
     atom   37 type  2   force =     0.00000000    0.00000000   -0.02937782

     Total force =     0.051122     Total SCF correction =     0.000171
     Energy error            =      7.4E-03 Ry
     Gradient error          =      2.9E-02 Ry/Bohr

     number of scf cycles    =   4
     number of bfgs steps    =   3

     energy             old  =   -1462.5888595616 Ry
     energy             new  =   -1462.5962425314 Ry

     CASE: energy            _new < energy            _old


     WARNING: bfgs curvature condition failed, Theta= 0.905
     new trust radius        =       0.0986473916 bohr
     new conv_thr            =       0.0000000294 Ry


ATOMIC_POSITIONS (alat)
Al               0.0000000000        0.0000000000        0.0000000000    0   0   0
Al               0.0000000000        0.9999999976        0.0000000000    0   0   0
Al               0.0000000000        1.9999999953        0.0000000000    0   0   0
Al               0.9999999976        0.0000000000        0.0000000000    0   0   0
Al               0.9999999976        0.9999999976        0.0000000000    0   0   0
Al               0.9999999976        1.9999999953        0.0000000000    0   0   0
Al               1.9999999953        0.0000000000        0.0000000000    0   0   0
Al               1.9999999953        0.9999999976        0.0000000000    0   0   0
Al               1.9999999953        1.9999999953        0.0000000000    0   0   0
Al               0.4999999988        0.4999999988        0.7071067673    0   0   0
Al               0.4999999988        1.4999999965        0.7071067673    0   0   0
Al               0.4999999988        2.4999999941        0.7071067673    0   0   0
Al               1.4999999965        0.4999999988        0.7071067673    0   0   0
Al               1.4999999965        1.4999999965        0.7071067673    0   0   0
Al               1.4999999965        2.4999999941        0.7071067673    0   0   0
Al               2.4999999941        0.4999999988        0.7071067673    0   0   0
Al               2.4999999941        1.4999999965        0.7071067673    0   0   0
Al               2.4999999941        2.4999999941        0.7071067673    0   0   0
Al               0.0000059740       -0.0000059740        1.4325494417
Al              -0.0040767269        0.9999999976        1.4462757728
Al               0.0000059740        2.0000059693        1.4325458460
Al               0.9999940236       -0.0000059740        1.4325458460
Al               1.0040767245        0.9999999976        1.4462748141
Al               0.9999940236        2.0000059693        1.4325448873
Al               1.9999999953        0.0040767269        1.4462757728
Al               1.9999999953        0.9999999976        1.4208010117
Al               1.9999999953        1.9959232684        1.4462748141
Al               0.4999999988        0.5054309833        2.1393146768
Al               0.4999999988        1.4945690119        2.1393134888
Al               0.4999999988        2.4999999941        2.1168403098
Al               1.5028542584        0.5028542607        2.1319606528
Al               1.5028542584        1.4971457345        2.1319629103
Al               1.5054309810        2.4999999941        2.1393134888
Al               2.4971457321        0.5028542607        2.1319618408
Al               2.4971457321        1.4971457345        2.1319606528
Al               2.4945690095        2.4999999941        2.1393146768
O                2.0000000000        1.0000000000        2.3651059324    0   0   1



     Writing config-only to output data dir ./tmp/Al.save/ :
     XML data file
     NEW-OLD atomic charge density approx. for the potential

     negative rho (up, down):  4.961E-04 0.000E+00

     total cpu time spent up to now is     1236.4 secs

     Self-consistent Calculation

     iteration #  1     ecut=    40.00 Ry     beta= 0.50
     Davidson diagonalization with overlap
     ethr =  1.00E-06,  avg # of iterations = 12.0

     negative rho (up, down):  3.417E-04 0.000E+00

     total cpu time spent up to now is     1266.2 secs

     total energy              =   -1462.60589867 Ry
     estimated scf accuracy    <       0.01110682 Ry

     iteration #  2     ecut=    40.00 Ry     beta= 0.50
     Davidson diagonalization with overlap
     ethr =  9.74E-06,  avg # of iterations =  1.0

     negative rho (up, down):  1.644E-04 0.000E+00

     total cpu time spent up to now is     1286.3 secs

     total energy              =   -1462.60543579 Ry
     estimated scf accuracy    <       0.00290807 Ry

     iteration #  3     ecut=    40.00 Ry     beta= 0.50
     Davidson diagonalization with overlap
     ethr =  2.55E-06,  avg # of iterations =  6.0

     negative rho (up, down):  1.564E-04 0.000E+00

     total cpu time spent up to now is     1307.8 secs

     total energy              =   -1462.60583543 Ry
     estimated scf accuracy    <       0.00041461 Ry

     iteration #  4     ecut=    40.00 Ry     beta= 0.50
     Davidson diagonalization with overlap
     ethr =  3.64E-07,  avg # of iterations =  5.0

     negative rho (up, down):  1.761E-04 0.000E+00

     total cpu time spent up to now is     1329.3 secs

     total energy              =   -1462.60586131 Ry
     estimated scf accuracy    <       0.00019315 Ry

     iteration #  5     ecut=    40.00 Ry     beta= 0.50
     Davidson diagonalization with overlap
     ethr =  1.69E-07,  avg # of iterations =  7.0

     negative rho (up, down):  1.571E-04 0.000E+00

     total cpu time spent up to now is     1351.8 secs

     total energy              =   -1462.60586304 Ry
     estimated scf accuracy    <       0.00056163 Ry

     iteration #  6     ecut=    40.00 Ry     beta= 0.50
     Davidson diagonalization with overlap
     ethr =  1.69E-07,  avg # of iterations =  2.0

     negative rho (up, down):  1.675E-04 0.000E+00

     total cpu time spent up to now is     1372.4 secs

     total energy              =   -1462.60587959 Ry
     estimated scf accuracy    <       0.00007221 Ry

     iteration #  7     ecut=    40.00 Ry     beta= 0.50
     Davidson diagonalization with overlap
     ethr =  6.33E-08,  avg # of iterations =  7.0

     negative rho (up, down):  2.288E-04 0.000E+00

     total cpu time spent up to now is     1393.9 secs

     total energy              =   -1462.60588919 Ry
     estimated scf accuracy    <       0.00000331 Ry

     iteration #  8     ecut=    40.00 Ry     beta= 0.50
     Davidson diagonalization with overlap
     ethr =  2.91E-09,  avg # of iterations = 12.0

     negative rho (up, down):  2.495E-04 0.000E+00

     total cpu time spent up to now is     1419.0 secs

     total energy              =   -1462.60589146 Ry
     estimated scf accuracy    <       0.00001262 Ry

     iteration #  9     ecut=    40.00 Ry     beta= 0.50
     Davidson diagonalization with overlap
     ethr =  2.91E-09,  avg # of iterations =  1.0

     negative rho (up, down):  3.527E-04 0.000E+00

     total cpu time spent up to now is     1439.0 secs

     total energy              =   -1462.60589217 Ry
     estimated scf accuracy    <       0.00000815 Ry

     iteration # 10     ecut=    40.00 Ry     beta= 0.50
     Davidson diagonalization with overlap
     ethr =  2.91E-09,  avg # of iterations =  5.0

     negative rho (up, down):  4.266E-04 0.000E+00

     total cpu time spent up to now is     1460.0 secs

     total energy              =   -1462.60589271 Ry
     estimated scf accuracy    <       0.00000044 Ry

     iteration # 11     ecut=    40.00 Ry     beta= 0.50
     Davidson diagonalization with overlap
     ethr =  3.84E-10,  avg # of iterations = 11.0

     negative rho (up, down):  4.236E-04 0.000E+00

     total cpu time spent up to now is     1484.0 secs

     total energy              =   -1462.60589288 Ry
     estimated scf accuracy    <       0.00000226 Ry

     iteration # 12     ecut=    40.00 Ry     beta= 0.50
     Davidson diagonalization with overlap
     ethr =  3.84E-10,  avg # of iterations =  1.0

     negative rho (up, down):  4.353E-04 0.000E+00

     total cpu time spent up to now is     1503.6 secs

     total energy              =   -1462.60589275 Ry
     estimated scf accuracy    <       0.00000132 Ry

     iteration # 13     ecut=    40.00 Ry     beta= 0.50
     Davidson diagonalization with overlap
     ethr =  3.84E-10,  avg # of iterations =  9.0

     negative rho (up, down):  4.977E-04 0.000E+00

     total cpu time spent up to now is     1527.0 secs

     total energy              =   -1462.60589292 Ry
     estimated scf accuracy    <       0.00000172 Ry

     iteration # 14     ecut=    40.00 Ry     beta= 0.50
     Davidson diagonalization with overlap
     ethr =  3.84E-10,  avg # of iterations =  6.0

     negative rho (up, down):  5.099E-04 0.000E+00

     total cpu time spent up to now is     1547.8 secs

     total energy              =   -1462.60589293 Ry
     estimated scf accuracy    <       0.00000036 Ry

     iteration # 15     ecut=    40.00 Ry     beta= 0.50
     Davidson diagonalization with overlap
     ethr =  3.18E-10,  avg # of iterations =  2.0

     negative rho (up, down):  5.106E-04 0.000E+00

     total cpu time spent up to now is     1567.9 secs

     total energy              =   -1462.60589293 Ry
     estimated scf accuracy    <       0.00000012 Ry

     iteration # 16     ecut=    40.00 Ry     beta= 0.50
     Davidson diagonalization with overlap
     ethr =  1.09E-10,  avg # of iterations =  6.0

     negative rho (up, down):  5.082E-04 0.000E+00

     total cpu time spent up to now is     1586.4 secs

     End of self-consistent calculation

          k = 0.0000 0.0000 0.0000 ( 24166 PWs)   bands (ev):

   -19.4452 -10.2872  -9.0146  -8.3674  -8.3674  -8.3334  -8.2729  -7.3934
    -7.3934  -7.0846  -7.0622  -6.8283  -6.5621  -6.5621  -6.3694  -6.3216
    -6.0267  -6.0267  -5.3178  -5.1168  -5.0282  -5.0282  -4.9584  -4.9301
    -4.4621  -4.4621  -3.9850  -3.7196  -3.0050  -2.8422  -2.8422  -2.7491
    -2.5028  -2.4540  -2.4540  -2.2141  -2.1570  -1.9530  -1.9530  -1.8595
    -1.6030  -1.3629  -1.2527  -1.2527  -1.1687  -1.1578  -1.0388  -1.0388
    -1.0137  -0.3118  -0.2116  -0.2116  -0.1017  -0.0805  -0.0572   0.0012
     0.0012   0.0733   0.2162   0.2162   0.2376   0.3419   0.4170   0.4170
     0.4326   0.7321   1.0362   1.0362

     the Fermi energy is     0.1343 ev

!    total energy              =   -1462.60589295 Ry
     total all-electron energy =    -17632.592922 Ry
     estimated scf accuracy    <          3.7E-09 Ry
     smearing contrib. (-TS)   =      -0.12042930 Ry
     internal energy E=F+TS    =   -1462.48546365 Ry

     The total energy is F=E-TS. E is the sum of the following terms:
     one-electron contribution =   -1706.64127028 Ry
     hartree contribution      =     882.93623571 Ry
     xc contribution           =     -98.77388592 Ry
     ewald contribution        =     717.88764618 Ry
     one-center paw contrib.   =   -1257.89418935 Ry

     convergence has been achieved in  16 iterations

     negative rho (up, down):  5.082E-04 0.000E+00

     Forces acting on atoms (cartesian axes, Ry/au):

     atom    1 type  1   force =    -0.00422962    0.00422962    0.01818754
     atom    2 type  1   force =     0.00286980    0.00000000    0.01854898
     atom    3 type  1   force =    -0.00422962   -0.00422962    0.01818754
     atom    4 type  1   force =     0.00422962    0.00422962    0.01818754
     atom    5 type  1   force =    -0.00286980    0.00000000    0.01854898
     atom    6 type  1   force =     0.00422962   -0.00422962    0.01818754
     atom    7 type  1   force =     0.00000000   -0.00286980    0.01854898
     atom    8 type  1   force =     0.00000000    0.00000000    0.01368180
     atom    9 type  1   force =    -0.00000000    0.00286980    0.01854898
     atom   10 type  1   force =     0.00000000    0.00158059   -0.00454941
     atom   11 type  1   force =    -0.00000000   -0.00158059   -0.00454941
     atom   12 type  1   force =     0.00000000    0.00000000   -0.01231696
     atom   13 type  1   force =    -0.00493934   -0.00493934   -0.00742338
     atom   14 type  1   force =    -0.00493934    0.00493934   -0.00742338
     atom   15 type  1   force =     0.00158059    0.00000000   -0.00454941
     atom   16 type  1   force =     0.00493934   -0.00493934   -0.00742338
     atom   17 type  1   force =     0.00493934    0.00493934   -0.00742338
     atom   18 type  1   force =    -0.00158059    0.00000000   -0.00454941
     atom   19 type  1   force =     0.00011676   -0.00011676   -0.00018108
     atom   20 type  1   force =    -0.00109564    0.00000000    0.00422493
     atom   21 type  1   force =     0.00011676    0.00011676   -0.00018108
     atom   22 type  1   force =    -0.00011676   -0.00011676   -0.00018108
     atom   23 type  1   force =     0.00109564    0.00000000    0.00422493
     atom   24 type  1   force =    -0.00011676    0.00011676   -0.00018108
     atom   25 type  1   force =     0.00000000    0.00109564    0.00422493
     atom   26 type  1   force =     0.00000000    0.00000000   -0.00100847
     atom   27 type  1   force =     0.00000000   -0.00109564    0.00422493
     atom   28 type  1   force =     0.00000000    0.00082465   -0.00832194
     atom   29 type  1   force =     0.00000000   -0.00082465   -0.00832194
     atom   30 type  1   force =     0.00000000    0.00000000   -0.01702180
     atom   31 type  1   force =     0.00501157    0.00501157   -0.00979641
     atom   32 type  1   force =     0.00501157   -0.00501157   -0.00979641
     atom   33 type  1   force =     0.00082465    0.00000000   -0.00832194
     atom   34 type  1   force =    -0.00501157    0.00501157   -0.00979641
     atom   35 type  1   force =    -0.00501157   -0.00501157   -0.00979641
     atom   36 type  1   force =    -0.00082465    0.00000000   -0.00832194
     atom   37 type  2   force =     0.00000000    0.00000000   -0.02609148

     Total force =     0.043732     Total SCF correction =     0.000080
     Energy error            =      9.7E-03 Ry
     Gradient error          =      2.6E-02 Ry/Bohr

     number of scf cycles    =   5
     number of bfgs steps    =   4

     energy             old  =   -1462.5962425314 Ry
     energy             new  =   -1462.6058929455 Ry

     CASE: energy            _new < energy            _old

     new trust radius        =       0.1479710874 bohr
     new conv_thr            =       0.0000000261 Ry


ATOMIC_POSITIONS (alat)
Al               0.0000000000        0.0000000000        0.0000000000    0   0   0
Al               0.0000000000        0.9999999976        0.0000000000    0   0   0
Al               0.0000000000        1.9999999953        0.0000000000    0   0   0
Al               0.9999999976        0.0000000000        0.0000000000    0   0   0
Al               0.9999999976        0.9999999976        0.0000000000    0   0   0
Al               0.9999999976        1.9999999953        0.0000000000    0   0   0
Al               1.9999999953        0.0000000000        0.0000000000    0   0   0
Al               1.9999999953        0.9999999976        0.0000000000    0   0   0
Al               1.9999999953        1.9999999953        0.0000000000    0   0   0
Al               0.4999999988        0.4999999988        0.7071067673    0   0   0
Al               0.4999999988        1.4999999965        0.7071067673    0   0   0
Al               0.4999999988        2.4999999941        0.7071067673    0   0   0
Al               1.4999999965        0.4999999988        0.7071067673    0   0   0
Al               1.4999999965        1.4999999965        0.7071067673    0   0   0
Al               1.4999999965        2.4999999941        0.7071067673    0   0   0
Al               2.4999999941        0.4999999988        0.7071067673    0   0   0
Al               2.4999999941        1.4999999965        0.7071067673    0   0   0
Al               2.4999999941        2.4999999941        0.7071067673    0   0   0
Al              -0.0004954077        0.0004954077        1.4333862279
Al              -0.0060586356        0.9999999976        1.4548914554
Al              -0.0004954077        1.9995045876        1.4333826322
Al               1.0004954053        0.0004954077        1.4333826322
Al               1.0060586332        0.9999999976        1.4548904967
Al               1.0004954053        1.9995045876        1.4333816735
Al               1.9999999953        0.0060586356        1.4548914554
Al               1.9999999953        0.9999999976        1.4132475673
Al               1.9999999953        1.9939413597        1.4548904967
Al               0.4999999988        0.5083439260        2.1272023436
Al               0.4999999988        1.4916560692        2.1272011556
Al               0.4999999988        2.4999999941        2.0894098721
Al               1.5024567303        0.5024567326        2.1133557996
Al               1.5024567303        1.4975432627        2.1133580571
Al               1.5083439237        2.4999999941        2.1272011556
Al               2.4975432603        0.5024567326        2.1133569876
Al               2.4975432603        1.4975432627        2.1133557996
Al               2.4916560668        2.4999999941        2.1272023436
O                2.0000000000        1.0000000000        2.3383493615    0   0   1



     Writing config-only to output data dir ./tmp/Al.save/ :
     XML data file
     NEW-OLD atomic charge density approx. for the potential

     negative rho (up, down):  4.796E-04 0.000E+00

     total cpu time spent up to now is     1609.9 secs

     Self-consistent Calculation

     iteration #  1     ecut=    40.00 Ry     beta= 0.50
     Davidson diagonalization with overlap
     ethr =  1.00E-06,  avg # of iterations = 15.0

     negative rho (up, down):  2.876E-04 0.000E+00

     total cpu time spent up to now is     1642.0 secs

     total energy              =   -1462.61693243 Ry
     estimated scf accuracy    <       0.02601671 Ry

     iteration #  2     ecut=    40.00 Ry     beta= 0.50
     Davidson diagonalization with overlap
     ethr =  2.28E-05,  avg # of iterations =  1.0

     negative rho (up, down):  1.033E-04 0.000E+00

     total cpu time spent up to now is     1662.1 secs

     total energy              =   -1462.61588884 Ry
     estimated scf accuracy    <       0.00687348 Ry

     iteration #  3     ecut=    40.00 Ry     beta= 0.50
     Davidson diagonalization with overlap
     ethr =  6.03E-06,  avg # of iterations =  6.0

     negative rho (up, down):  6.540E-05 0.000E+00

     total cpu time spent up to now is     1683.5 secs

     total energy              =   -1462.61662238 Ry
     estimated scf accuracy    <       0.00033592 Ry

     iteration #  4     ecut=    40.00 Ry     beta= 0.50
     Davidson diagonalization with overlap
     ethr =  2.95E-07,  avg # of iterations =  9.0

     negative rho (up, down):  6.942E-05 0.000E+00

     total cpu time spent up to now is     1707.9 secs

     total energy              =   -1462.61685230 Ry
     estimated scf accuracy    <       0.00077667 Ry

     iteration #  5     ecut=    40.00 Ry     beta= 0.50
     Davidson diagonalization with overlap
     ethr =  2.95E-07,  avg # of iterations =  1.0

     negative rho (up, down):  1.104E-04 0.000E+00

     total cpu time spent up to now is     1727.8 secs

     total energy              =   -1462.61677760 Ry
     estimated scf accuracy    <       0.00055344 Ry

     iteration #  6     ecut=    40.00 Ry     beta= 0.50
     Davidson diagonalization with overlap
     ethr =  2.95E-07,  avg # of iterations =  7.0

     negative rho (up, down):  9.922E-05 0.000E+00

     total cpu time spent up to now is     1749.8 secs

     total energy              =   -1462.61683709 Ry
     estimated scf accuracy    <       0.00049821 Ry

     iteration #  7     ecut=    40.00 Ry     beta= 0.50
     Davidson diagonalization with overlap
     ethr =  2.95E-07,  avg # of iterations =  1.0

     negative rho (up, down):  9.856E-05 0.000E+00

     total cpu time spent up to now is     1769.8 secs

     total energy              =   -1462.61681786 Ry
     estimated scf accuracy    <       0.00025932 Ry

     iteration #  8     ecut=    40.00 Ry     beta= 0.50
     Davidson diagonalization with overlap
     ethr =  2.27E-07,  avg # of iterations =  2.0

     negative rho (up, down):  1.360E-04 0.000E+00

     total cpu time spent up to now is     1790.1 secs

     total energy              =   -1462.61682751 Ry
     estimated scf accuracy    <       0.00002219 Ry

     iteration #  9     ecut=    40.00 Ry     beta= 0.50
     Davidson diagonalization with overlap
     ethr =  1.95E-08,  avg # of iterations =  8.0

     negative rho (up, down):  1.811E-04 0.000E+00

     total cpu time spent up to now is     1812.8 secs

     total energy              =   -1462.61683477 Ry
     estimated scf accuracy    <       0.00004926 Ry

     iteration # 10     ecut=    40.00 Ry     beta= 0.50
     Davidson diagonalization with overlap
     ethr =  1.95E-08,  avg # of iterations =  2.0

     negative rho (up, down):  2.754E-04 0.000E+00

     total cpu time spent up to now is     1832.7 secs

     total energy              =   -1462.61683648 Ry
     estimated scf accuracy    <       0.00001042 Ry

     iteration # 11     ecut=    40.00 Ry     beta= 0.50
     Davidson diagonalization with overlap
     ethr =  9.14E-09,  avg # of iterations =  7.0

     negative rho (up, down):  3.576E-04 0.000E+00

     total cpu time spent up to now is     1854.9 secs

     total energy              =   -1462.61683957 Ry
     estimated scf accuracy    <       0.00001241 Ry

     iteration # 12     ecut=    40.00 Ry     beta= 0.50
     Davidson diagonalization with overlap
     ethr =  9.14E-09,  avg # of iterations =  1.0

     negative rho (up, down):  4.174E-04 0.000E+00

     total cpu time spent up to now is     1874.9 secs

     total energy              =   -1462.61683879 Ry
     estimated scf accuracy    <       0.00001279 Ry

     iteration # 13     ecut=    40.00 Ry     beta= 0.50
     Davidson diagonalization with overlap
     ethr =  9.14E-09,  avg # of iterations =  2.0

     negative rho (up, down):  4.303E-04 0.000E+00

     total cpu time spent up to now is     1895.1 secs

     total energy              =   -1462.61683917 Ry
     estimated scf accuracy    <       0.00000083 Ry

     iteration # 14     ecut=    40.00 Ry     beta= 0.50
     Davidson diagonalization with overlap
     ethr =  7.28E-10,  avg # of iterations =  8.0

     negative rho (up, down):  4.622E-04 0.000E+00

     total cpu time spent up to now is     1917.9 secs

     total energy              =   -1462.61683933 Ry
     estimated scf accuracy    <       0.00000077 Ry

     iteration # 15     ecut=    40.00 Ry     beta= 0.50
     Davidson diagonalization with overlap
     ethr =  6.71E-10,  avg # of iterations =  5.0

     negative rho (up, down):  5.054E-04 0.000E+00

     total cpu time spent up to now is     1935.8 secs

     End of self-consistent calculation

          k = 0.0000 0.0000 0.0000 ( 24166 PWs)   bands (ev):

   -19.5242 -10.3034  -9.0425  -8.4046  -8.4046  -8.3643  -8.2789  -7.4311
    -7.4311  -7.1196  -7.0831  -6.8116  -6.5994  -6.5994  -6.3863  -6.3463
    -6.0231  -6.0231  -5.3528  -5.1465  -5.0293  -5.0293  -4.9375  -4.8947
    -4.4682  -4.4682  -3.9404  -3.7329  -2.9708  -2.8383  -2.8383  -2.7860
    -2.5234  -2.4551  -2.4551  -2.1775  -2.1254  -1.9292  -1.9292  -1.8301
    -1.5482  -1.3996  -1.2959  -1.2959  -1.1791  -1.1787  -1.0446  -1.0383
    -1.0383  -0.2865  -0.1968  -0.1968  -0.1396  -0.0981  -0.0334   0.0129
     0.0129   0.1086   0.2126   0.2126   0.2220   0.3521   0.4323   0.4323
     0.4839   0.7632   1.0658   1.0658

     the Fermi energy is     0.1445 ev

!    total energy              =   -1462.61683938 Ry
     total all-electron energy =    -17632.603869 Ry
     estimated scf accuracy    <       0.00000002 Ry
     smearing contrib. (-TS)   =      -0.12363575 Ry
     internal energy E=F+TS    =   -1462.49320364 Ry

     The total energy is F=E-TS. E is the sum of the following terms:
     one-electron contribution =   -1722.10966500 Ry
     hartree contribution      =     890.73862890 Ry
     xc contribution           =     -98.90710382 Ry
     ewald contribution        =     725.69930779 Ry
     one-center paw contrib.   =   -1257.91437151 Ry

     convergence has been achieved in  15 iterations

     negative rho (up, down):  5.054E-04 0.000E+00

     Forces acting on atoms (cartesian axes, Ry/au):

     atom    1 type  1   force =    -0.00391985    0.00391985    0.01918915
     atom    2 type  1   force =     0.00335045   -0.00000000    0.02043247
     atom    3 type  1   force =    -0.00391985   -0.00391985    0.01918915
     atom    4 type  1   force =     0.00391985    0.00391985    0.01918915
     atom    5 type  1   force =    -0.00335045   -0.00000000    0.02043247
     atom    6 type  1   force =     0.00391985   -0.00391985    0.01918915
[...]
     atom    2 type  1   force =     0.00601759    0.00000000    0.02941022
     atom    3 type  1   force =     0.00067392    0.00067392    0.02319616
     atom    4 type  1   force =    -0.00067392   -0.00067392    0.02319616
     atom    5 type  1   force =    -0.00601759    0.00000000    0.02941022
     atom    6 type  1   force =    -0.00067392    0.00067392    0.02319616
     atom    7 type  1   force =     0.00000000   -0.00601759    0.02941022
     atom    8 type  1   force =     0.00000000    0.00000000    0.02665035
     atom    9 type  1   force =    -0.00000000    0.00601759    0.02941022
     atom   10 type  1   force =    -0.00000000   -0.00013961   -0.02787566
     atom   11 type  1   force =     0.00000000    0.00013961   -0.02787566
     atom   12 type  1   force =     0.00000000    0.00000000   -0.04132176
     atom   13 type  1   force =    -0.00346240   -0.00346240   -0.02136455
     atom   14 type  1   force =    -0.00346240    0.00346240   -0.02136455
     atom   15 type  1   force =    -0.00013961    0.00000000   -0.02787566
     atom   16 type  1   force =     0.00346240   -0.00346240   -0.02136455
     atom   17 type  1   force =     0.00346240    0.00346240   -0.02136455
     atom   18 type  1   force =     0.00013961   -0.00000000   -0.02787566
     atom   19 type  1   force =     0.00030137   -0.00030137   -0.00016781
     atom   20 type  1   force =     0.00027374    0.00000000    0.00019300
     atom   21 type  1   force =     0.00030137    0.00030137   -0.00016781
     atom   22 type  1   force =    -0.00030137   -0.00030137   -0.00016781
     atom   23 type  1   force =    -0.00027374    0.00000000    0.00019300
     atom   24 type  1   force =    -0.00030137    0.00030137   -0.00016781
     atom   25 type  1   force =     0.00000000   -0.00027374    0.00019300
     atom   26 type  1   force =     0.00000000    0.00000000    0.00003986
     atom   27 type  1   force =    -0.00000000    0.00027374    0.00019300
     atom   28 type  1   force =    -0.00000000   -0.00034567    0.00048189
     atom   29 type  1   force =     0.00000000    0.00034567    0.00048189
     atom   30 type  1   force =     0.00000000    0.00000000   -0.00034922
     atom   31 type  1   force =    -0.00038647   -0.00038647    0.00012787
     atom   32 type  1   force =    -0.00038647    0.00038647    0.00012787
     atom   33 type  1   force =    -0.00034567    0.00000000    0.00048189
     atom   34 type  1   force =     0.00038647   -0.00038647    0.00012787
     atom   35 type  1   force =     0.00038647    0.00038647    0.00012787
     atom   36 type  1   force =     0.00034567    0.00000000    0.00048189
     atom   37 type  2   force =     0.00000000    0.00000000   -0.00102375

     Total force =     0.002264     Total SCF correction =     0.000029
     Energy error            =      2.1E-05 Ry
     Gradient error          =      1.0E-03 Ry/Bohr

     number of scf cycles    =  26
     number of bfgs steps    =  24

     energy             old  =   -1462.6827344313 Ry
     energy             new  =   -1462.6827553861 Ry

     CASE: energy            _new < energy            _old

     new trust radius        =       0.0023507766 bohr
     new conv_thr            =       0.0000000010 Ry


ATOMIC_POSITIONS (alat)
Al               0.0000000000        0.0000000000        0.0000000000    0   0   0
Al               0.0000000000        0.9999999968        0.0000000000    0   0   0
Al               0.0000000000        1.9999999938        0.0000000000    0   0   0
Al               0.9999999968        0.0000000000        0.0000000000    0   0   0
Al               0.9999999968        0.9999999968        0.0000000000    0   0   0
Al               0.9999999968        1.9999999938        0.0000000000    0   0   0
Al               1.9999999938        0.0000000000        0.0000000000    0   0   0
Al               1.9999999938        0.9999999968        0.0000000000    0   0   0
Al               1.9999999938        1.9999999938        0.0000000000    0   0   0
Al               0.4999999984        0.4999999984        0.7071067668    0   0   0
Al               0.4999999984        1.4999999954        0.7071067668    0   0   0
Al               0.4999999984        2.4999999922        0.7071067668    0   0   0
Al               1.4999999954        0.4999999984        0.7071067668    0   0   0
Al               1.4999999954        1.4999999954        0.7071067668    0   0   0
Al               1.4999999954        2.4999999922        0.7071067668    0   0   0
Al               2.4999999922        0.4999999984        0.7071067668    0   0   0
Al               2.4999999922        1.4999999954        0.7071067668    0   0   0
Al               2.4999999922        2.4999999922        0.7071067668    0   0   0
Al               0.0000303687       -0.0000303687        1.3236373363
Al               0.0029272815        0.9999999968        1.3333164550
Al               0.0000303687        2.0000303625        1.3236337406
Al               0.9999696282       -0.0000303687        1.3236337406
Al               0.9970727154        0.9999999968        1.3333154963
Al               0.9999696282        2.0000303625        1.3236327819
Al               1.9999999938       -0.0029272815        1.3333164550
Al               1.9999999938        0.9999999968        1.3215155951
Al               1.9999999938        2.0029272753        1.3333154963
Al               0.4999999984        0.5063636048        1.9555203106
Al               0.4999999984        1.4936363890        1.9555191226
Al               0.4999999984        2.4999999922        1.9313848384
Al               1.4836716597        0.4836716628        1.9383617039
Al               1.4836716597        1.5163283310        1.9383639614
Al               1.5063636017        2.4999999922        1.9555191226
Al               2.5163283279        0.4836716628        1.9383628919
Al               2.5163283279        1.5163283310        1.9383617039
Al               2.4936363859        2.4999999922        1.9555203106
O                1.9999999985        0.9999999992        2.0468330892    0   0   1



     Writing config-only to output data dir ./tmp/Al.save/ :
     XML data file
     NEW-OLD atomic charge density approx. for the potential

     negative rho (up, down):  4.794E-04 0.000E+00

     total cpu time spent up to now is     8853.9 secs

     Self-consistent Calculation

     iteration #  1     ecut=    40.00 Ry     beta= 0.50
     Davidson diagonalization with overlap
     ethr =  1.00E-06,  avg # of iterations =  2.0

     Threshold (ethr) on eigenvalues was too large:
     Diagonalizing with lowered threshold

     Davidson diagonalization with overlap
     ethr =  1.11E-09,  avg # of iterations = 11.0

     negative rho (up, down):  4.836E-04 0.000E+00

     total cpu time spent up to now is     8886.6 secs

     total energy              =   -1462.68276384 Ry
     estimated scf accuracy    <       0.00000641 Ry

     iteration #  2     ecut=    40.00 Ry     beta= 0.50
     Davidson diagonalization with overlap
     ethr =  5.62E-09,  avg # of iterations =  1.0

     negative rho (up, down):  4.904E-04 0.000E+00

     total cpu time spent up to now is     8904.8 secs

     total energy              =   -1462.68276348 Ry
     estimated scf accuracy    <       0.00000176 Ry

     iteration #  3     ecut=    40.00 Ry     beta= 0.50
     Davidson diagonalization with overlap
     ethr =  1.55E-09,  avg # of iterations =  2.0

     negative rho (up, down):  4.921E-04 0.000E+00

     total cpu time spent up to now is     8923.6 secs

     total energy              =   -1462.68276377 Ry
     estimated scf accuracy    <       0.00000004 Ry

     iteration #  4     ecut=    40.00 Ry     beta= 0.50
     Davidson diagonalization with overlap
     ethr =  3.55E-11,  avg # of iterations = 17.0

     negative rho (up, down):  4.911E-04 0.000E+00

     total cpu time spent up to now is     8947.2 secs

     total energy              =   -1462.68276381 Ry
     estimated scf accuracy    <       0.00000003 Ry

     iteration #  5     ecut=    40.00 Ry     beta= 0.50
     Davidson diagonalization with overlap
     ethr =  2.80E-11,  avg # of iterations =  1.0

     negative rho (up, down):  4.872E-04 0.000E+00

     total cpu time spent up to now is     8965.4 secs

     total energy              =   -1462.68276382 Ry
     estimated scf accuracy    <       0.00000001 Ry

     iteration #  6     ecut=    40.00 Ry     beta= 0.50
     Davidson diagonalization with overlap
     ethr =  1.29E-11,  avg # of iterations =  2.0

     negative rho (up, down):  4.864E-04 0.000E+00

     total cpu time spent up to now is     8984.5 secs

     total energy              =   -1462.68276381 Ry
     estimated scf accuracy    <          1.4E-09 Ry

     iteration #  7     ecut=    40.00 Ry     beta= 0.50
     Davidson diagonalization with overlap
     ethr =  1.26E-12,  avg # of iterations = 12.0

     negative rho (up, down):  4.863E-04 0.000E+00

     total cpu time spent up to now is     9006.4 secs

     total energy              =   -1462.68276381 Ry
     estimated scf accuracy    <          3.0E-09 Ry

     iteration #  8     ecut=    40.00 Ry     beta= 0.50
     Davidson diagonalization with overlap
     ethr =  1.26E-12,  avg # of iterations =  2.0

     negative rho (up, down):  4.840E-04 0.000E+00

     total cpu time spent up to now is     9025.0 secs

     total energy              =   -1462.68276381 Ry
     estimated scf accuracy    <          1.3E-09 Ry

     iteration #  9     ecut=    40.00 Ry     beta= 0.50
     Davidson diagonalization with overlap
     ethr =  1.11E-12,  avg # of iterations =  2.0

     negative rho (up, down):  4.793E-04 0.000E+00

     total cpu time spent up to now is     9041.7 secs

     End of self-consistent calculation

          k = 0.0000 0.0000 0.0000 ( 24166 PWs)   bands (ev):

   -20.3978 -10.7170  -9.0198  -8.9244  -8.9244  -8.7466  -8.7097  -7.7674
    -7.7674  -7.1127  -7.0896  -6.9362  -6.9362  -6.9336  -6.8326  -6.6284
    -6.2433  -6.2433  -5.6479  -5.1879  -5.0054  -5.0054  -4.9030  -4.8521
    -4.4565  -4.4565  -4.0378  -3.5411  -2.9969  -2.9969  -2.9944  -2.9629
    -2.9569  -2.6456  -2.6456  -2.2198  -1.7750  -1.7750  -1.7628  -1.7226
    -1.7106  -1.5676  -1.5676  -1.5048  -1.3272  -1.1100  -1.0073  -0.9665
    -0.9665  -0.4289  -0.3772  -0.3772  -0.1431  -0.1152   0.0890   0.0890
     0.0960   0.2348   0.3727   0.4656   0.4656   0.5429   0.5841   0.5841
     0.8939   0.9353   1.1493   1.1493

     the Fermi energy is     0.2263 ev

!    total energy              =   -1462.68276381 Ry
     total all-electron energy =    -17632.669793 Ry
     estimated scf accuracy    <          1.5E-10 Ry
     smearing contrib. (-TS)   =      -0.07464696 Ry
     internal energy E=F+TS    =   -1462.60811685 Ry

     The total energy is F=E-TS. E is the sum of the following terms:
     one-electron contribution =   -1913.92424653 Ry
     hartree contribution      =     987.04583184 Ry
     xc contribution           =    -100.23411594 Ry
     ewald contribution        =     822.65840822 Ry
     one-center paw contrib.   =   -1258.15399444 Ry

     convergence has been achieved in   9 iterations

     negative rho (up, down):  4.793E-04 0.000E+00

     Forces acting on atoms (cartesian axes, Ry/au):

     atom    1 type  1   force =     0.00066216   -0.00066216    0.02316751
     atom    2 type  1   force =     0.00600684    0.00000000    0.02939384
     atom    3 type  1   force =     0.00066216    0.00066216    0.02316751
     atom    4 type  1   force =    -0.00066216   -0.00066216    0.02316751
     atom    5 type  1   force =    -0.00600684    0.00000000    0.02939384
     atom    6 type  1   force =    -0.00066216    0.00066216    0.02316751
     atom    7 type  1   force =    -0.00000000   -0.00600684    0.02939384
     atom    8 type  1   force =     0.00000000    0.00000000    0.02663868
     atom    9 type  1   force =     0.00000000    0.00600684    0.02939384
     atom   10 type  1   force =     0.00000000   -0.00004796   -0.02781892
     atom   11 type  1   force =     0.00000000    0.00004796   -0.02781892
     atom   12 type  1   force =     0.00000000    0.00000000   -0.04137367
     atom   13 type  1   force =    -0.00340487   -0.00340487   -0.02132405
     atom   14 type  1   force =    -0.00340487    0.00340487   -0.02132405
     atom   15 type  1   force =    -0.00004796   -0.00000000   -0.02781892
     atom   16 type  1   force =     0.00340487   -0.00340487   -0.02132405
     atom   17 type  1   force =     0.00340487    0.00340487   -0.02132405
     atom   18 type  1   force =     0.00004796    0.00000000   -0.02781892
     atom   19 type  1   force =     0.00036070   -0.00036070   -0.00001107
     atom   20 type  1   force =     0.00053536    0.00000000    0.00009849
     atom   21 type  1   force =     0.00036070    0.00036070   -0.00001107
     atom   22 type  1   force =    -0.00036070   -0.00036070   -0.00001107
     atom   23 type  1   force =    -0.00053536   -0.00000000    0.00009849
     atom   24 type  1   force =    -0.00036070    0.00036070   -0.00001107
     atom   25 type  1   force =     0.00000000   -0.00053536    0.00009849
     atom   26 type  1   force =     0.00000000    0.00000000   -0.00021035
     atom   27 type  1   force =     0.00000000    0.00053536    0.00009849
     atom   28 type  1   force =     0.00000000   -0.00033516    0.00033266
     atom   29 type  1   force =     0.00000000    0.00033516    0.00033266
     atom   30 type  1   force =     0.00000000    0.00000000   -0.00047487
     atom   31 type  1   force =    -0.00032593   -0.00032593    0.00025401
     atom   32 type  1   force =    -0.00032593    0.00032593    0.00025401
     atom   33 type  1   force =    -0.00033516    0.00000000    0.00033266
     atom   34 type  1   force =     0.00032593   -0.00032593    0.00025401
     atom   35 type  1   force =     0.00032593    0.00032593    0.00025401
     atom   36 type  1   force =     0.00033516   -0.00000000    0.00033266
     atom   37 type  2   force =     0.00000000    0.00000000   -0.00094970

     Total force =     0.002323     Total SCF correction =     0.000005
     Energy error            =      8.4E-06 Ry
     Gradient error          =      9.5E-04 Ry/Bohr

     bfgs converged in  27 scf cycles and  25 bfgs steps
     (criteria: energy <  1.0E-04 Ry, force <  1.0E-03 Ry/Bohr)

     End of BFGS Geometry Optimization

     Final energy             =   -1462.6827638092 Ry

     File ./tmp/Al.bfgs deleted, as requested
Begin final coordinates

ATOMIC_POSITIONS (alat)
Al               0.0000000000        0.0000000000        0.0000000000    0   0   0
Al               0.0000000000        0.9999999968        0.0000000000    0   0   0
Al               0.0000000000        1.9999999938        0.0000000000    0   0   0
Al               0.9999999968        0.0000000000        0.0000000000    0   0   0
Al               0.9999999968        0.9999999968        0.0000000000    0   0   0
Al               0.9999999968        1.9999999938        0.0000000000    0   0   0
Al               1.9999999938        0.0000000000        0.0000000000    0   0   0
Al               1.9999999938        0.9999999968        0.0000000000    0   0   0
Al               1.9999999938        1.9999999938        0.0000000000    0   0   0
Al               0.4999999984        0.4999999984        0.7071067668    0   0   0
Al               0.4999999984        1.4999999954        0.7071067668    0   0   0
Al               0.4999999984        2.4999999922        0.7071067668    0   0   0
Al               1.4999999954        0.4999999984        0.7071067668    0   0   0
Al               1.4999999954        1.4999999954        0.7071067668    0   0   0
Al               1.4999999954        2.4999999922        0.7071067668    0   0   0
Al               2.4999999922        0.4999999984        0.7071067668    0   0   0
Al               2.4999999922        1.4999999954        0.7071067668    0   0   0
Al               2.4999999922        2.4999999922        0.7071067668    0   0   0
Al               0.0000303687       -0.0000303687        1.3236373363
Al               0.0029272815        0.9999999968        1.3333164550
Al               0.0000303687        2.0000303625        1.3236337406
Al               0.9999696282       -0.0000303687        1.3236337406
Al               0.9970727154        0.9999999968        1.3333154963
Al               0.9999696282        2.0000303625        1.3236327819
Al               1.9999999938       -0.0029272815        1.3333164550
Al               1.9999999938        0.9999999968        1.3215155951
Al               1.9999999938        2.0029272753        1.3333154963
Al               0.4999999984        0.5063636048        1.9555203106
Al               0.4999999984        1.4936363890        1.9555191226
Al               0.4999999984        2.4999999922        1.9313848384
Al               1.4836716597        0.4836716628        1.9383617039
Al               1.4836716597        1.5163283310        1.9383639614
Al               1.5063636017        2.4999999922        1.9555191226
Al               2.5163283279        0.4836716628        1.9383628919
Al               2.5163283279        1.5163283310        1.9383617039
Al               2.4936363859        2.4999999922        1.9555203106
O                1.9999999985        0.9999999992        2.0468330892    0   0   1
End final coordinates



     Writing all to output data dir ./tmp/Al.save/ :
     XML data file, charge density, pseudopotentials, collected wavefunctions

     init_run     :     12.71s CPU     14.18s WALL (       1 calls)
     electrons    :   7708.08s CPU   8419.13s WALL (      27 calls)
     update_pot   :    136.75s CPU    143.19s WALL (      26 calls)
     forces       :    227.51s CPU    264.11s WALL (      27 calls)

     Called by init_run:
     wfcinit      :      3.61s CPU      3.83s WALL (       1 calls)
     potinit      :      5.35s CPU      5.59s WALL (       1 calls)
     hinit0       :      0.72s CPU      0.80s WALL (       1 calls)

     Called by electrons:
     c_bands      :   2204.49s CPU   2233.46s WALL (     380 calls)
     sum_band     :   1533.99s CPU   1856.27s WALL (     380 calls)
     v_of_rho     :    332.77s CPU    394.86s WALL (     400 calls)
     newd         :   1097.91s CPU   1402.33s WALL (     400 calls)
     PAW_pot      :   1786.99s CPU   1787.63s WALL (     426 calls)
     mix_rho      :   1030.96s CPU   1044.48s WALL (     380 calls)

     Called by c_bands:
     init_us_2    :     73.70s CPU     79.85s WALL (     787 calls)
     regterg      :   1988.09s CPU   2011.43s WALL (     380 calls)

     Called by *egterg:
     rdiaghg      :      7.73s CPU      7.78s WALL (    2394 calls)
     h_psi        :   1568.13s CPU   1572.86s WALL (    2428 calls)
     s_psi        :    206.06s CPU    206.42s WALL (    2428 calls)
     g_psi        :      4.74s CPU      4.76s WALL (    2047 calls)

     Called by h_psi:
     h_psi:calbec :    192.15s CPU    193.93s WALL (    2428 calls)
     vloc_psi     :   1163.94s CPU   1166.45s WALL (    2428 calls)
     add_vuspsi   :    206.43s CPU    206.76s WALL (    2428 calls)

     General routines
     calbec       :    265.69s CPU    268.39s WALL (    2942 calls)
     fft          :    149.16s CPU    149.48s WALL (    4622 calls)
     ffts         :    434.75s CPU    435.33s WALL (   42948 calls)
     fftw         :    997.08s CPU    997.90s WALL (   89096 calls)
     interpolate  :     23.43s CPU     24.14s WALL (     400 calls)

     Parallel routines

     PWSCF        :      2h17m CPU      2h30m WALL


   This run was terminated on:  15:49: 2  19May2025            

=------------------------------------------------------------------------------=
   JOB DONE.
=------------------------------------------------------------------------------=
