No protocol specified

     Program PWSCF v.7.3.1 starts on 19May2025 at 22:23:46 

     This program is part of the open-source Quantum ESPRESSO suite
     for quantum simulation of materials; please cite
         "P. Giannozzi et al., J. Phys.:Condens. Matter 21 395502 (2009);
         "P. Giannozzi et al., J. Phys.:Condens. Matter 29 465901 (2017);
         "P. Giannozzi et al., J. Chem. Phys. 152 154105 (2020);
          URL http://www.quantum-espresso.org", 
     in publications or presentations arising from this work. More details at
     http://www.quantum-espresso.org/quote

     Parallel version (MPI), running on    12 processors

     MPI processes distributed on     1 nodes
     22880 MiB available memory on the printing compute node when the environment starts

     Waiting for input...
     Reading input from standard input

     Current dimensions of program PWSCF are:
     Max number of different atomic species (ntypx) = 10
     Max number of k-points (npk) =  40000
     Max angular momentum in pseudopotentials (lmaxx) =  4
     Message from routine input:
     WARNING: "startingwfc" set to atomic may spoil restart
     file Al.pbe-n-kjpaw_psl.1.0.0.UPF: wavefunction(s)  3S 3P renormalized
     file O.pbe-n-kjpaw_psl.0.1.UPF: wavefunction(s)  2P renormalized
     Message from routine setup:
     using ibrav=0 with symmetry is DISCOURAGED, use correct ibrav instead

     K-points division:     npool     =       6
     R & G space division:  proc/nbgrp/npool/nimage =       2
     Subspace diagonalization in iterative solution of the eigenvalue problem:
     a serial algorithm will be used


     Parallelization info
     --------------------
     sticks:   dense  smooth     PW     G-vecs:    dense   smooth      PW
     Min        3332    1670    442               546072   193176   26812
     Max        3333    1671    443               546077   193177   26819
     Sum        6665    3341    885              1092149   386353   53631

     Using Slab Decomposition



     bravais-lattice index     =            0
     lattice parameter (alat)  =       5.3944  a.u.
     unit-cell volume          =   11302.2493 (a.u.)^3
     number of atoms/cell      =           37
     number of atomic types    =            2
     number of electrons       =       114.00
     number of Kohn-Sham states=           68
     kinetic-energy cutoff     =      40.0000  Ry
     charge density cutoff     =     320.0000  Ry
     scf convergence threshold =      1.0E-07
     mixing beta               =       0.5000
     number of iterations used =            8  local-TF  mixing
     energy convergence thresh.=      1.0E-04
     force convergence thresh. =      1.0E-03
     Exchange-correlation= SLA  PW   PBX  PBC
                           (   1   4   3   4   0   0   0)
     nstep                     =           50


     celldm(1)=   5.394412  celldm(2)=   0.000000  celldm(3)=   0.000000
     celldm(4)=   0.000000  celldm(5)=   0.000000  celldm(6)=   0.000000

     crystal axes: (cart. coord. in units of alat)
               a(1) = (   3.000000   0.000000   0.000000 )  
               a(2) = (   0.000000   3.000000   0.000000 )  
               a(3) = (   0.000000   0.000000   8.000000 )  

     reciprocal axes: (cart. coord. in units 2 pi/alat)
               b(1) = (  0.333333  0.000000  0.000000 )  
               b(2) = (  0.000000  0.333333  0.000000 )  
               b(3) = (  0.000000  0.000000  0.125000 )  


     PseudoPot. # 1 for Al read from file:
     ../../Pseudo/Al.pbe-n-kjpaw_psl.1.0.0.UPF
     MD5 check sum: dd5adf945272da8132fc805c9e56c2d6
     Pseudo is Projector augmented-wave + core cor, Zval =  3.0
     Generated using "atomic" code by A. Dal Corso  v.5.1
     Shape of augmentation charge: PSQ
     Using radial grid of 1135 points,  6 beta functions with: 
                l(1) =   0
                l(2) =   0
                l(3) =   1
                l(4) =   1
                l(5) =   2
                l(6) =   2
     Q(r) pseudized with 0 coefficients 


     PseudoPot. # 2 for O  read from file:
     ../../Pseudo/O.pbe-n-kjpaw_psl.0.1.UPF
     MD5 check sum: 0234752ac141de4415c5fc33072bef88
     Pseudo is Projector augmented-wave + core cor, Zval =  6.0
     Generated using "atomic" code by A. Dal Corso  v.5.0.99 svn rev. 10869
     Shape of augmentation charge: BESSEL
     Using radial grid of 1095 points,  4 beta functions with: 
                l(1) =   0
                l(2) =   0
                l(3) =   1
                l(4) =   1
     Q(r) pseudized with 0 coefficients 


     atomic species   valence    mass     pseudopotential
     Al                3.00     1.00000     Al( 1.00)
     O                 6.00     1.00000     O ( 1.00)

      8 Sym. Ops. (no inversion) found ( 6 have fractional translation)



   Cartesian axes

     site n.     atom                  positions (alat units)
         1        Al     tau(   1) = (   0.0000000   0.0000000   0.0000000  )
         2        Al     tau(   2) = (   0.0000000   1.0000000   0.0000000  )
         3        Al     tau(   3) = (   0.0000000   2.0000000   0.0000000  )
         4        Al     tau(   4) = (   1.0000000   0.0000000   0.0000000  )
         5        Al     tau(   5) = (   1.0000000   1.0000000   0.0000000  )
         6        Al     tau(   6) = (   1.0000000   2.0000000   0.0000000  )
         7        Al     tau(   7) = (   2.0000000   0.0000000   0.0000000  )
         8        Al     tau(   8) = (   2.0000000   1.0000000   0.0000000  )
         9        Al     tau(   9) = (   2.0000000   2.0000000   0.0000000  )
        10        Al     tau(  10) = (   0.5000000   0.5000000   0.7071068  )
        11        Al     tau(  11) = (   0.5000000   1.5000000   0.7071068  )
        12        Al     tau(  12) = (   0.5000000   2.5000000   0.7071068  )
        13        Al     tau(  13) = (   1.5000000   0.5000000   0.7071068  )
        14        Al     tau(  14) = (   1.5000000   1.5000000   0.7071068  )
        15        Al     tau(  15) = (   1.5000000   2.5000000   0.7071068  )
        16        Al     tau(  16) = (   2.5000000   0.5000000   0.7071068  )
        17        Al     tau(  17) = (   2.5000000   1.5000000   0.7071068  )
        18        Al     tau(  18) = (   2.5000000   2.5000000   0.7071068  )
        19        Al     tau(  19) = (  -0.0008124   0.0008124   1.4335019  )
        20        Al     tau(  20) = (  -0.0070847   1.0000000   1.4639177  )
        21        Al     tau(  21) = (  -0.0008124   1.9991876   1.4334983  )
        22        Al     tau(  22) = (   1.0008124   0.0008124   1.4334983  )
        23        Al     tau(  23) = (   1.0070847   1.0000000   1.4639167  )
        24        Al     tau(  24) = (   1.0008124   1.9991876   1.4334973  )
        25        Al     tau(  25) = (   2.0000000   0.0070847   1.4639177  )
        26        Al     tau(  26) = (   2.0000000   1.0000000   1.3898022  )
        27        Al     tau(  27) = (   2.0000000   1.9929153   1.4639167  )
        28        Al     tau(  28) = (   0.5000000   0.4986660   2.1808639  )
        29        Al     tau(  29) = (   0.5000000   1.5013340   2.1808628  )
        30        Al     tau(  30) = (   0.5000000   2.5000000   2.1586510  )
        31        Al     tau(  31) = (   1.5135844   0.5135844   2.1776255  )
        32        Al     tau(  32) = (   1.5135844   1.4864156   2.1776277  )
        33        Al     tau(  33) = (   1.4986659   2.5000000   2.1808628  )
        34        Al     tau(  34) = (   2.4864156   0.5135844   2.1776267  )
        35        Al     tau(  35) = (   2.4864156   1.4864156   2.1776255  )
        36        Al     tau(  36) = (   2.5013340   2.5000000   2.1808639  )
        37        O      tau(  37) = (   2.0000000   1.0000000   2.4192623  )

     number of k points=     6  Marzari-Vanderbilt smearing, width (Ry)=  0.0500
                       cart. coord. in units 2pi/alat
        k(    1) = (   0.0277778   0.0277778   0.0000000), wk =   0.2222222
        k(    2) = (   0.0277778   0.0833333   0.0000000), wk =   0.4444444
        k(    3) = (   0.0277778   0.1388889   0.0000000), wk =   0.4444444
        k(    4) = (   0.0833333   0.0833333   0.0000000), wk =   0.2222222
        k(    5) = (   0.0833333   0.1388889   0.0000000), wk =   0.4444444
        k(    6) = (   0.1388889   0.1388889   0.0000000), wk =   0.2222222

     Dense  grid:  1092149 G-vectors     FFT dimensions: (  96,  96, 250)

     Smooth grid:   386353 G-vectors     FFT dimensions: (  72,  72, 180)

     Estimated max dynamical RAM per process >     999.53 MB

     Estimated total dynamical RAM >      10.41 GB

     Atomic positions and unit cell read from directory:
     ./tmp/Al.save/


     The initial density is read from file :
     ./tmp/Al.save/charge-density


     negative rho (up, down):  5.134E-04 0.000E+00
     Starting wfcs are  148 atomic wfcs
     Checking if some PAW data can be deallocated... 

     total cpu time spent up to now is        9.9 secs

     Self-consistent Calculation

     iteration #  1     ecut=    40.00 Ry     beta= 0.50
     Davidson diagonalization with overlap
     c_bands:  1 eigenvalues not converged
     ethr =  1.00E-05,  avg # of iterations = 20.0

     negative rho (up, down):  3.934E-04 0.000E+00

     total cpu time spent up to now is       49.2 secs

     total energy              =   -1463.18810270 Ry
     estimated scf accuracy    <       0.00138020 Ry

     iteration #  2     ecut=    40.00 Ry     beta= 0.50
     Davidson diagonalization with overlap
     c_bands:  1 eigenvalues not converged
     ethr =  1.21E-06,  avg # of iterations = 12.7

     negative rho (up, down):  1.759E-04 0.000E+00

     total cpu time spent up to now is       66.5 secs

     total energy              =   -1463.18815251 Ry
     estimated scf accuracy    <       0.00068326 Ry

     iteration #  3     ecut=    40.00 Ry     beta= 0.50
     Davidson diagonalization with overlap
     ethr =  5.99E-07,  avg # of iterations =  4.5

     negative rho (up, down):  1.850E-04 0.000E+00

     total cpu time spent up to now is       81.0 secs

     total energy              =   -1463.18826377 Ry
     estimated scf accuracy    <       0.00003981 Ry

     iteration #  4     ecut=    40.00 Ry     beta= 0.50
     Davidson diagonalization with overlap
     ethr =  3.49E-08,  avg # of iterations =  8.5

     negative rho (up, down):  2.039E-04 0.000E+00

     total cpu time spent up to now is       97.8 secs

     total energy              =   -1463.18827189 Ry
     estimated scf accuracy    <       0.00001006 Ry

     iteration #  5     ecut=    40.00 Ry     beta= 0.50
     Davidson diagonalization with overlap
     ethr =  8.82E-09,  avg # of iterations =  6.5

     negative rho (up, down):  1.899E-04 0.000E+00

     total cpu time spent up to now is      115.0 secs

     total energy              =   -1463.18827339 Ry
     estimated scf accuracy    <       0.00005137 Ry

     iteration #  6     ecut=    40.00 Ry     beta= 0.50
     Davidson diagonalization with overlap
     ethr =  8.82E-09,  avg # of iterations =  2.0

     negative rho (up, down):  2.660E-04 0.000E+00

     total cpu time spent up to now is      128.9 secs

     total energy              =   -1463.18827274 Ry
     estimated scf accuracy    <       0.00001463 Ry

     iteration #  7     ecut=    40.00 Ry     beta= 0.50
     Davidson diagonalization with overlap
     ethr =  8.82E-09,  avg # of iterations =  5.2

     negative rho (up, down):  3.616E-04 0.000E+00

     total cpu time spent up to now is      144.0 secs

     total energy              =   -1463.18827766 Ry
     estimated scf accuracy    <       0.00000444 Ry

     iteration #  8     ecut=    40.00 Ry     beta= 0.50
     Davidson diagonalization with overlap
     ethr =  3.89E-09,  avg # of iterations =  1.0

     negative rho (up, down):  4.441E-04 0.000E+00

     total cpu time spent up to now is      156.4 secs

     total energy              =   -1463.18827711 Ry
     estimated scf accuracy    <       0.00000492 Ry

     iteration #  9     ecut=    40.00 Ry     beta= 0.50
     Davidson diagonalization with overlap
     ethr =  3.89E-09,  avg # of iterations =  2.0

     negative rho (up, down):  4.917E-04 0.000E+00

     total cpu time spent up to now is      169.7 secs

     total energy              =   -1463.18827739 Ry
     estimated scf accuracy    <       0.00000059 Ry

     iteration # 10     ecut=    40.00 Ry     beta= 0.50
     Davidson diagonalization with overlap
     ethr =  5.16E-10,  avg # of iterations =  5.2

     negative rho (up, down):  5.128E-04 0.000E+00

     total cpu time spent up to now is      183.2 secs

     End of self-consistent calculation

          k = 0.0278 0.0278 0.0000 ( 48321 PWs)   bands (ev):

   -19.4184 -10.3119  -8.9982  -8.6942  -8.6437  -8.0656  -7.9832  -7.5592
    -7.5111  -7.1156  -6.9691  -6.9218  -6.8318  -6.4945  -6.3571  -6.2931
    -6.1133  -5.7322  -5.5585  -5.2553  -5.2052  -5.0998  -4.8333  -4.5560
    -4.4063  -4.3919  -4.0914  -3.6604  -3.4508  -3.1485  -3.0917  -2.8411
    -2.7619  -2.4679  -2.3755  -2.2526  -1.9473  -1.8923  -1.8642  -1.7987
    -1.7636  -1.7179  -1.6482  -1.5712  -1.4798  -1.4655  -0.8854  -0.8608
    -0.7053  -0.5465  -0.4911  -0.3531  -0.3374  -0.2915  -0.2834  -0.1136
    -0.0980  -0.0679   0.1333   0.2763   0.3074   0.5346   0.5592   0.5823
     0.6183   0.7378   0.7720   1.1616

          k = 0.0278 0.0833 0.0000 ( 48286 PWs)   bands (ev):

   -19.4184 -10.2015  -9.2145  -8.8930  -8.5608  -7.9912  -7.9212  -7.6161
    -7.4274  -7.2865  -6.9912  -6.9321  -6.7489  -6.6257  -6.3906  -6.0484
    -5.8679  -5.6186  -5.5874  -5.4048  -5.0020  -4.9361  -4.5867  -4.3504
    -4.2319  -4.1569  -3.9947  -3.8389  -3.7316  -3.4632  -3.1443  -3.0633
    -2.9734  -2.8048  -2.6232  -2.3854  -2.1903  -2.1381  -2.0410  -1.7741
    -1.7656  -1.6946  -1.6671  -1.5051  -1.4377  -1.2683  -1.0842  -0.9867
    -0.9231  -0.8612  -0.8092  -0.7328  -0.5375  -0.4484  -0.2833  -0.0875
     0.1623   0.2564   0.3207   0.4177   0.5180   0.6888   0.7566   0.8612
     0.9221   1.1684   1.1995   1.3096

          k = 0.0278 0.1389 0.0000 ( 48332 PWs)   bands (ev):

   -19.4184  -9.9810  -9.6512  -8.6933  -8.3913  -8.3264  -8.0251  -7.7177
    -7.4406  -7.2103  -7.0654  -6.7174  -6.5626  -6.4774  -6.3165  -6.1979
    -5.9677  -5.7503  -5.3542  -5.0439  -4.8629  -4.7568  -4.5914  -4.2381
    -4.1778  -4.0166  -3.9601  -3.8189  -3.7166  -3.5704  -3.3764  -3.2817
    -3.1129  -2.9325  -2.7987  -2.5353  -2.4948  -2.4157  -2.1233  -2.0210
    -1.8854  -1.7201  -1.5720  -1.5185  -1.4921  -1.4720  -1.2841  -1.2618
    -1.1858  -1.0111  -0.9642  -0.6769  -0.3532  -0.3167  -0.1569   0.0238
     0.1436   0.2663   0.3766   0.6049   0.6619   0.7166   0.9020   0.9658
     1.0125   1.1437   1.4698   1.7079

          k = 0.0833 0.0833 0.0000 ( 48259 PWs)   bands (ev):

   -19.4184 -10.0911  -9.1273  -9.0810  -8.7903  -8.1310  -7.9484  -7.8136
    -7.3120  -7.1284  -7.0100  -6.7343  -6.6499  -6.4232  -6.1258  -6.0611
    -5.8322  -5.7342  -5.4927  -5.4233  -5.0007  -4.6382  -4.6162  -4.3142
    -4.1748  -4.1706  -3.9410  -3.8770  -3.6882  -3.3880  -3.2416  -3.2156
    -2.9890  -2.9326  -2.9120  -2.8800  -2.7839  -2.4789  -2.2830  -2.0131
    -2.0113  -1.8850  -1.6023  -1.5639  -1.1011  -1.0617  -0.8078  -0.7811
    -0.7577  -0.6556  -0.6133  -0.5268  -0.4245  -0.4089  -0.3159  -0.1122
    -0.0545   0.0570   0.1972   0.2258   0.5682   0.7767   0.8337   1.0117
     1.0193   1.1241   1.1763   1.4949

          k = 0.0833 0.1389 0.0000 ( 48265 PWs)   bands (ev):

   -19.4184  -9.8709  -9.5417  -8.8864  -8.6111  -8.5362  -8.2750  -7.6898
    -7.4345  -6.9682  -6.8264  -6.6333  -6.4659  -6.3254  -6.1772  -5.9683
    -5.5705  -5.4134  -5.3201  -5.2866  -5.1465  -4.9323  -4.8494  -4.3403
    -4.2605  -3.9899  -3.8696  -3.7627  -3.6664  -3.5572  -3.4496  -3.3433
    -3.3141  -3.0711  -2.8365  -2.7231  -2.7108  -2.5439  -2.4780  -2.4231
    -2.1926  -2.0179  -1.7440  -1.5858  -1.3604  -1.2298  -1.0826  -0.8887
    -0.8121  -0.5219  -0.4694  -0.3941  -0.2372  -0.2072  -0.1702  -0.1461
    -0.0117   0.1432   0.2585   0.6498   0.6846   0.8415   0.9261   1.0296
     1.0843   1.1979   1.2831   1.3476

          k = 0.1389 0.1389 0.0000 ( 48221 PWs)   bands (ev):

   -19.4184  -9.6513  -9.3427  -9.3015  -8.9946  -8.3859  -8.1521  -7.9891
    -7.7735  -6.7532  -6.7504  -6.1816  -6.0108  -5.9527  -5.8841  -5.7666
    -5.7083  -5.5364  -5.4737  -5.0658  -5.0188  -4.8854  -4.7597  -4.6545
    -4.6151  -4.5482  -4.3166  -3.9289  -3.6932  -3.6298  -3.4769  -3.4440
    -3.1347  -3.1074  -3.0347  -2.6873  -2.6463  -2.6227  -2.4937  -2.2589
    -2.0854  -1.9254  -1.6337  -1.6103  -1.3730  -1.3132  -1.1547  -0.9771
    -0.9592  -0.7964  -0.7219  -0.7036  -0.4194  -0.2791   0.0152   0.1557
     0.4153   0.4337   0.6045   0.8670   0.9040   0.9158   0.9341   1.0782
     1.0859   1.1319   1.2697   1.4952

     the Fermi energy is     0.1376 ev

!    total energy              =   -1463.18827754 Ry
     total all-electron energy =    -17633.175307 Ry
     estimated scf accuracy    <       0.00000002 Ry
     smearing contrib. (-TS)   =       0.00170509 Ry
     internal energy E=F+TS    =   -1463.18998263 Ry

     The total energy is F=E-TS. E is the sum of the following terms:
     one-electron contribution =   -1668.03836387 Ry
     hartree contribution      =     862.90275762 Ry
     xc contribution           =     -98.51910192 Ry
     ewald contribution        =     698.36155471 Ry
     one-center paw contrib.   =   -1257.89682917 Ry

     convergence has been achieved in  10 iterations

     negative rho (up, down):  5.128E-04 0.000E+00

     Forces acting on atoms (cartesian axes, Ry/au):

     atom    1 type  1   force =    -0.00105091    0.00105091   -0.00379258
     atom    2 type  1   force =     0.00030263    0.00000000   -0.00449966
     atom    3 type  1   force =    -0.00105091   -0.00105091   -0.00379258
     atom    4 type  1   force =     0.00105091    0.00105091   -0.00379258
     atom    5 type  1   force =    -0.00030263    0.00000000   -0.00449966
     atom    6 type  1   force =     0.00105091   -0.00105091   -0.00379258
     atom    7 type  1   force =     0.00000000   -0.00030263   -0.00449966
     atom    8 type  1   force =     0.00000000    0.00000000   -0.00607213
     atom    9 type  1   force =     0.00000000    0.00030263   -0.00449966
     atom   10 type  1   force =    -0.00000000    0.00223599    0.00891585
     atom   11 type  1   force =    -0.00000000   -0.00223599    0.00891585
     atom   12 type  1   force =     0.00000000    0.00000000    0.00865761
     atom   13 type  1   force =    -0.00257041   -0.00257041    0.00400506
     atom   14 type  1   force =    -0.00257041    0.00257041    0.00400506
     atom   15 type  1   force =     0.00223599    0.00000000    0.00891585
     atom   16 type  1   force =     0.00257041   -0.00257041    0.00400506
     atom   17 type  1   force =     0.00257041    0.00257041    0.00400506
     atom   18 type  1   force =    -0.00223599   -0.00000000    0.00891585
     atom   19 type  1   force =     0.00053521   -0.00053521   -0.00131121
     atom   20 type  1   force =     0.00026347    0.00000000   -0.00145269
     atom   21 type  1   force =     0.00053521    0.00053521   -0.00131121
     atom   22 type  1   force =    -0.00053521   -0.00053521   -0.00131121
     atom   23 type  1   force =    -0.00026347    0.00000000   -0.00145269
     atom   24 type  1   force =    -0.00053521    0.00053521   -0.00131121
     atom   25 type  1   force =     0.00000000   -0.00026347   -0.00145269
     atom   26 type  1   force =     0.00000000    0.00000000    0.00027523
     atom   27 type  1   force =     0.00000000    0.00026347   -0.00145269
     atom   28 type  1   force =    -0.00000000   -0.00017614   -0.00126846
     atom   29 type  1   force =     0.00000000    0.00017614   -0.00126846
     atom   30 type  1   force =     0.00000000    0.00000000   -0.00056492
     atom   31 type  1   force =     0.00033348    0.00033348   -0.00146577
     atom   32 type  1   force =     0.00033348   -0.00033348   -0.00146577
     atom   33 type  1   force =    -0.00017614   -0.00000000   -0.00126846
     atom   34 type  1   force =    -0.00033348    0.00033348   -0.00146577
     atom   35 type  1   force =    -0.00033348   -0.00033348   -0.00146577
     atom   36 type  1   force =     0.00017614   -0.00000000   -0.00126846
     atom   37 type  2   force =     0.00000000    0.00000000    0.00118206

     Total force =     0.005977     Total SCF correction =     0.000061

     BFGS Geometry Optimization
     Energy error            =      0.0E+00 Ry
     Gradient error          =      1.5E-03 Ry/Bohr

     number of scf cycles    =   1
     number of bfgs steps    =   0

     energy             new  =   -1463.1882775366 Ry

     new trust radius        =       0.0015397745 bohr
     new conv_thr            =       0.0000001000 Ry


ATOMIC_POSITIONS (alat)
Al               0.0000000000        0.0000000000        0.0000000000    0   0   0
Al               0.0000000000        0.9999999974        0.0000000000    0   0   0
Al               0.0000000000        1.9999999949        0.0000000000    0   0   0
Al               0.9999999974        0.0000000000        0.0000000000    0   0   0
Al               0.9999999974        0.9999999974        0.0000000000    0   0   0
Al               0.9999999974        1.9999999949        0.0000000000    0   0   0
Al               1.9999999949        0.0000000000        0.0000000000    0   0   0
Al               1.9999999949        0.9999999974        0.0000000000    0   0   0
Al               1.9999999949        1.9999999949        0.0000000000    0   0   0
Al               0.4999999987        0.4999999987        0.7071067672    0   0   0
Al               0.4999999987        1.4999999963        0.7071067672    0   0   0
Al               0.4999999987        2.4999999936        0.7071067672    0   0   0
Al               1.4999999963        0.4999999987        0.7071067672    0   0   0
Al               1.4999999963        1.4999999963        0.7071067672    0   0   0
Al               1.4999999963        2.4999999936        0.7071067672    0   0   0
Al               2.4999999936        0.4999999987        0.7071067672    0   0   0
Al               2.4999999936        1.4999999963        0.7071067672    0   0   0
Al               2.4999999936        2.4999999936        0.7071067672    0   0   0
Al              -0.0007131567        0.0007131567        1.4332587979
Al              -0.0070358727        0.9999999974        1.4636483644
Al              -0.0007131567        1.9992868383        1.4332552022
Al               1.0007131541        0.0007131567        1.4332552022
Al               1.0070358702        0.9999999974        1.4636474057
Al               1.0007131541        1.9992868383        1.4332542435
Al               1.9999999949        0.0070358727        1.4636483644
Al               1.9999999949        0.9999999974        1.3898532623
Al               1.9999999949        1.9929641222        1.4636474057
Al               0.4999999987        0.4986333002        2.1806287955
Al               0.4999999987        1.5013666947        2.1806276075
Al               0.4999999987        2.4999999936        2.1585463067
Al               1.5136461737        0.5136461763        2.1773537467
Al               1.5136461737        1.4863538187        2.1773560042
Al               1.4986332977        2.4999999936        2.1806276075
Al               2.4863538162        0.5136461763        2.1773549347
Al               2.4863538162        1.4863538187        2.1773537467
Al               2.5013666922        2.4999999936        2.1806287955
O                1.9999999996        0.9999999998        2.4194813923    0   0   1



     Writing config-only to output data dir ./tmp/Al.save/ :
     XML data file
     NEW-OLD atomic charge density approx. for the potential

     negative rho (up, down):  5.130E-04 0.000E+00

     total cpu time spent up to now is      194.1 secs

     Self-consistent Calculation

     iteration #  1     ecut=    40.00 Ry     beta= 0.50
     Davidson diagonalization with overlap
     ethr =  1.00E-06,  avg # of iterations =  2.0

     Threshold (ethr) on eigenvalues was too large:
     Diagonalizing with lowered threshold

     Davidson diagonalization with overlap
     ethr =  1.49E-09,  avg # of iterations =  6.5

     negative rho (up, down):  5.161E-04 0.000E+00

     total cpu time spent up to now is      222.8 secs

     total energy              =   -1463.18831266 Ry
     estimated scf accuracy    <       0.00000498 Ry

     iteration #  2     ecut=    40.00 Ry     beta= 0.50
     Davidson diagonalization with overlap
     ethr =  4.37E-09,  avg # of iterations =  1.0

     negative rho (up, down):  5.219E-04 0.000E+00

     total cpu time spent up to now is      235.1 secs

     total energy              =   -1463.18831240 Ry
     estimated scf accuracy    <       0.00000204 Ry

     iteration #  3     ecut=    40.00 Ry     beta= 0.50
     Davidson diagonalization with overlap
     ethr =  1.79E-09,  avg # of iterations =  2.0

     negative rho (up, down):  5.213E-04 0.000E+00

     total cpu time spent up to now is      248.2 secs

     total energy              =   -1463.18831258 Ry
     estimated scf accuracy    <       0.00000011 Ry

     iteration #  4     ecut=    40.00 Ry     beta= 0.50
     Davidson diagonalization with overlap
     ethr =  9.24E-11,  avg # of iterations =  6.7

     negative rho (up, down):  5.129E-04 0.000E+00

     total cpu time spent up to now is      262.5 secs

     End of self-consistent calculation

          k = 0.0278 0.0278 0.0000 ( 48321 PWs)   bands (ev):

   -19.4163 -10.3126  -8.9980  -8.6949  -8.6443  -8.0661  -7.9838  -7.5584
    -7.5106  -7.1158  -6.9683  -6.9217  -6.8323  -6.4945  -6.3576  -6.2926
    -6.1130  -5.7326  -5.5584  -5.2555  -5.2052  -5.0994  -4.8333  -4.5559
    -4.4059  -4.3918  -4.0911  -3.6605  -3.4505  -3.1492  -3.0921  -2.8413
    -2.7619  -2.4673  -2.3751  -2.2524  -1.9472  -1.8925  -1.8642  -1.7988
    -1.7638  -1.7180  -1.6489  -1.5716  -1.4805  -1.4654  -0.8861  -0.8602
    -0.7052  -0.5464  -0.4908  -0.3528  -0.3374  -0.2913  -0.2829  -0.1135
    -0.0976  -0.0681   0.1332   0.2767   0.3078   0.5342   0.5588   0.5823
     0.6183   0.7374   0.7714   1.1615

          k = 0.0278 0.0833 0.0000 ( 48286 PWs)   bands (ev):

   -19.4163 -10.2022  -9.2152  -8.8928  -8.5614  -7.9908  -7.9217  -7.6164
    -7.4270  -7.2869  -6.9914  -6.9315  -6.7491  -6.6251  -6.3902  -6.0480
    -5.8679  -5.6192  -5.5869  -5.4047  -5.0020  -4.9366  -4.5865  -4.3507
    -4.2321  -4.1568  -3.9945  -3.8388  -3.7313  -3.4632  -3.1442  -3.0632
    -2.9738  -2.8052  -2.6234  -2.3851  -2.1909  -2.1385  -2.0412  -1.7741
    -1.7657  -1.6943  -1.6670  -1.5049  -1.4376  -1.2680  -1.0840  -0.9869
    -0.9236  -0.8609  -0.8087  -0.7327  -0.5376  -0.4490  -0.2833  -0.0870
     0.1617   0.2563   0.3208   0.4176   0.5184   0.6891   0.7568   0.8616
     0.9222   1.1686   1.1997   1.3095

          k = 0.0278 0.1389 0.0000 ( 48332 PWs)   bands (ev):

   -19.4163  -9.9817  -9.6519  -8.6930  -8.3912  -8.3270  -8.0257  -7.7181
    -7.4407  -7.2102  -7.0645  -6.7168  -6.5624  -6.4774  -6.3170  -6.1978
    -5.9673  -5.7496  -5.3548  -5.0437  -4.8630  -4.7573  -4.5916  -4.2378
    -4.1780  -4.0170  -3.9598  -3.8190  -3.7167  -3.5703  -3.3761  -3.2814
    -3.1133  -2.9325  -2.7993  -2.5358  -2.4950  -2.4158  -2.1229  -2.0209
    -1.8851  -1.7201  -1.5721  -1.5181  -1.4924  -1.4718  -1.2842  -1.2621
    -1.1858  -1.0109  -0.9643  -0.6770  -0.3534  -0.3167  -0.1566   0.0239
     0.1439   0.2659   0.3772   0.6048   0.6622   0.7170   0.9014   0.9652
     1.0130   1.1440   1.4702   1.7079

          k = 0.0833 0.0833 0.0000 ( 48259 PWs)   bands (ev):

   -19.4163 -10.0919  -9.1280  -9.0816  -8.7902  -8.1316  -7.9478  -7.8135
    -7.3119  -7.1288  -7.0099  -6.7333  -6.6503  -6.4225  -6.1264  -6.0616
    -5.8319  -5.7347  -5.4923  -5.4230  -5.0005  -4.6380  -4.6160  -4.3142
    -4.1756  -4.1713  -3.9407  -3.8769  -3.6883  -3.3879  -3.2422  -3.2162
    -2.9887  -2.9324  -2.9118  -2.8799  -2.7838  -2.4790  -2.2829  -2.0126
    -2.0110  -1.8859  -1.6023  -1.5636  -1.1008  -1.0617  -0.8076  -0.7813
    -0.7574  -0.6553  -0.6130  -0.5273  -0.4248  -0.4097  -0.3160  -0.1126
    -0.0546   0.0566   0.1975   0.2264   0.5685   0.7768   0.8338   1.0121
     1.0193   1.1243   1.1767   1.4947

          k = 0.0833 0.1389 0.0000 ( 48265 PWs)   bands (ev):

   -19.4163  -9.8716  -9.5424  -8.8870  -8.6109  -8.5367  -8.2748  -7.6894
    -7.4338  -6.9686  -6.8255  -6.6332  -6.4656  -6.3254  -6.1775  -5.9684
    -5.5705  -5.4134  -5.3204  -5.2870  -5.1468  -4.9319  -4.8490  -4.3403
    -4.2607  -3.9904  -3.8694  -3.7630  -3.6661  -3.5575  -3.4497  -3.3431
    -3.3146  -3.0710  -2.8363  -2.7229  -2.7105  -2.5438  -2.4786  -2.4227
    -2.1924  -2.0180  -1.7442  -1.5860  -1.3600  -1.2299  -1.0822  -0.8887
    -0.8121  -0.5218  -0.4692  -0.3938  -0.2377  -0.2069  -0.1701  -0.1469
    -0.0123   0.1433   0.2587   0.6490   0.6846   0.8419   0.9261   1.0297
     1.0841   1.1981   1.2830   1.3478

          k = 0.1389 0.1389 0.0000 ( 48221 PWs)   bands (ev):

   -19.4163  -9.6520  -9.3434  -9.3021  -8.9953  -8.3856  -8.1515  -7.9892
    -7.7732  -6.7520  -6.7489  -6.1816  -6.0113  -5.9533  -5.8846  -5.7670
    -5.7090  -5.5365  -5.4736  -5.0661  -5.0195  -4.8856  -4.7596  -4.6549
    -4.6152  -4.5479  -4.3165  -3.9285  -3.6933  -3.6296  -3.4765  -3.4435
    -3.1347  -3.1069  -3.0346  -2.6870  -2.6465  -2.6228  -2.4943  -2.2590
    -2.0861  -1.9252  -1.6340  -1.6108  -1.3730  -1.3133  -1.1544  -0.9773
    -0.9589  -0.7960  -0.7218  -0.7044  -0.4189  -0.2799   0.0159   0.1561
     0.4159   0.4342   0.6047   0.8673   0.9045   0.9159   0.9336   1.0783
     1.0852   1.1322   1.2690   1.4954

     the Fermi energy is     0.1377 ev

!    total energy              =   -1463.18831256 Ry
     total all-electron energy =    -17633.175342 Ry
     estimated scf accuracy    <       0.00000007 Ry
     smearing contrib. (-TS)   =       0.00172929 Ry
     internal energy E=F+TS    =   -1463.19004186 Ry

     The total energy is F=E-TS. E is the sum of the following terms:
     one-electron contribution =   -1668.19381571 Ry
     hartree contribution      =     862.97790637 Ry
     xc contribution           =     -98.52025663 Ry
     ewald contribution        =     698.44314252 Ry
     one-center paw contrib.   =   -1257.89701840 Ry

     convergence has been achieved in   4 iterations

     negative rho (up, down):  5.129E-04 0.000E+00

     Forces acting on atoms (cartesian axes, Ry/au):

     atom    1 type  1   force =    -0.00104845    0.00104845   -0.00378762
     atom    2 type  1   force =     0.00030080    0.00000000   -0.00450085
     atom    3 type  1   force =    -0.00104845   -0.00104845   -0.00378762
     atom    4 type  1   force =     0.00104845    0.00104845   -0.00378762
     atom    5 type  1   force =    -0.00030080    0.00000000   -0.00450085
     atom    6 type  1   force =     0.00104845   -0.00104845   -0.00378762
     atom    7 type  1   force =     0.00000000   -0.00030080   -0.00450085
     atom    8 type  1   force =     0.00000000    0.00000000   -0.00607209
     atom    9 type  1   force =     0.00000000    0.00030080   -0.00450085
     atom   10 type  1   force =    -0.00000000    0.00223966    0.00885749
     atom   11 type  1   force =     0.00000000   -0.00223966    0.00885749
     atom   12 type  1   force =     0.00000000    0.00000000    0.00856803
     atom   13 type  1   force =    -0.00256225   -0.00256225    0.00398310
     atom   14 type  1   force =    -0.00256225    0.00256225    0.00398310
     atom   15 type  1   force =     0.00223966    0.00000000    0.00885749
     atom   16 type  1   force =     0.00256225   -0.00256225    0.00398310
     atom   17 type  1   force =     0.00256225    0.00256225    0.00398310
     atom   18 type  1   force =    -0.00223966   -0.00000000    0.00885749
     atom   19 type  1   force =     0.00047876   -0.00047876   -0.00124153
     atom   20 type  1   force =     0.00024006    0.00000000   -0.00139475
     atom   21 type  1   force =     0.00047876    0.00047876   -0.00124153
     atom   22 type  1   force =    -0.00047876   -0.00047876   -0.00124153
     atom   23 type  1   force =    -0.00024006   -0.00000000   -0.00139475
     atom   24 type  1   force =    -0.00047876    0.00047876   -0.00124153
     atom   25 type  1   force =    -0.00000000   -0.00024006   -0.00139475
     atom   26 type  1   force =     0.00000000    0.00000000    0.00021113
     atom   27 type  1   force =     0.00000000    0.00024006   -0.00139475
     atom   28 type  1   force =    -0.00000000   -0.00016362   -0.00127454
     atom   29 type  1   force =    -0.00000000    0.00016362   -0.00127454
     atom   30 type  1   force =     0.00000000    0.00000000   -0.00056619
     atom   31 type  1   force =     0.00031258    0.00031258   -0.00142917
     atom   32 type  1   force =     0.00031258   -0.00031258   -0.00142917
     atom   33 type  1   force =    -0.00016362    0.00000000   -0.00127454
     atom   34 type  1   force =    -0.00031258    0.00031258   -0.00142917
     atom   35 type  1   force =    -0.00031258   -0.00031258   -0.00142917
     atom   36 type  1   force =     0.00016362   -0.00000000   -0.00127454
     atom   37 type  2   force =     0.00000000    0.00000000    0.00101059

     Total force =     0.005741     Total SCF correction =     0.000357
     Energy error            =      3.5E-05 Ry
     Gradient error          =      1.4E-03 Ry/Bohr

     number of scf cycles    =   2
     number of bfgs steps    =   1

     energy             old  =   -1463.1882775366 Ry
     energy             new  =   -1463.1883125639 Ry

     CASE: energy            _new < energy            _old


     WARNING: bfgs curvature condition failed, Theta= 0.834
     new trust radius        =       0.0016937520 bohr
     new conv_thr            =       0.0000000010 Ry


ATOMIC_POSITIONS (alat)
Al               0.0000000000        0.0000000000        0.0000000000    0   0   0
Al               0.0000000000        0.9999999974        0.0000000000    0   0   0
Al               0.0000000000        1.9999999949        0.0000000000    0   0   0
Al               0.9999999974        0.0000000000        0.0000000000    0   0   0
Al               0.9999999974        0.9999999974        0.0000000000    0   0   0
Al               0.9999999974        1.9999999949        0.0000000000    0   0   0
Al               1.9999999949        0.0000000000        0.0000000000    0   0   0
Al               1.9999999949        0.9999999974        0.0000000000    0   0   0
Al               1.9999999949        1.9999999949        0.0000000000    0   0   0
Al               0.4999999987        0.4999999987        0.7071067672    0   0   0
Al               0.4999999987        1.4999999963        0.7071067672    0   0   0
Al               0.4999999987        2.4999999936        0.7071067672    0   0   0
Al               1.4999999963        0.4999999987        0.7071067672    0   0   0
Al               1.4999999963        1.4999999963        0.7071067672    0   0   0
Al               1.4999999963        2.4999999936        0.7071067672    0   0   0
Al               2.4999999936        0.4999999987        0.7071067672    0   0   0
Al               2.4999999936        1.4999999963        0.7071067672    0   0   0
Al               2.4999999936        2.4999999936        0.7071067672    0   0   0
Al              -0.0006124688        0.0006124688        1.4329980595
Al              -0.0069854091        0.9999999974        1.4633555459
Al              -0.0006124688        1.9993875262        1.4329944638
Al               1.0006124662        0.0006124688        1.4329944638
Al               1.0069854066        0.9999999974        1.4633545872
Al               1.0006124662        1.9993875262        1.4329935051
Al               1.9999999949        0.0069854091        1.4633555459
Al               1.9999999949        0.9999999974        1.3898978530
Al               1.9999999949        1.9930145858        1.4633545872
Al               0.4999999987        0.4985989225        2.1803614963
Al               0.4999999987        1.5014010724        2.1803603083
Al               0.4999999987        2.4999999936        2.1584275567
Al               1.5137118359        0.5137118385        2.1770538099
Al               1.5137118359        1.4862881565        2.1770560674
Al               1.4985989200        2.4999999936        2.1803603083
Al               2.4862881540        0.5137118385        2.1770549979
Al               2.4862881540        1.4862881565        2.1770538099
Al               2.5014010699        2.4999999936        2.1803614963
O                1.9999999996        0.9999999998        2.4196941801    0   0   1



     Writing config-only to output data dir ./tmp/Al.save/ :
     XML data file
     NEW-OLD atomic charge density approx. for the potential

     negative rho (up, down):  5.131E-04 0.000E+00

     total cpu time spent up to now is      273.4 secs

     Self-consistent Calculation

     iteration #  1     ecut=    40.00 Ry     beta= 0.50
     Davidson diagonalization with overlap
     ethr =  1.00E-06,  avg # of iterations =  2.0

     Threshold (ethr) on eigenvalues was too large:
     Diagonalizing with lowered threshold

     Davidson diagonalization with overlap
     ethr =  1.19E-08,  avg # of iterations =  5.3

     negative rho (up, down):  5.108E-04 0.000E+00

     total cpu time spent up to now is      298.5 secs

     total energy              =   -1463.18834926 Ry
     estimated scf accuracy    <       0.00003933 Ry

     iteration #  2     ecut=    40.00 Ry     beta= 0.50
     Davidson diagonalization with overlap
     ethr =  3.45E-08,  avg # of iterations =  1.0

     negative rho (up, down):  5.031E-04 0.000E+00

     total cpu time spent up to now is      310.6 secs

     total energy              =   -1463.18834784 Ry
     estimated scf accuracy    <       0.00001556 Ry

     iteration #  3     ecut=    40.00 Ry     beta= 0.50
     Davidson diagonalization with overlap
     ethr =  1.37E-08,  avg # of iterations =  2.0

     negative rho (up, down):  5.015E-04 0.000E+00

     total cpu time spent up to now is      323.6 secs

     total energy              =   -1463.18834894 Ry
     estimated scf accuracy    <       0.00000038 Ry

     iteration #  4     ecut=    40.00 Ry     beta= 0.50
     Davidson diagonalization with overlap
     ethr =  3.31E-10,  avg # of iterations =  7.3

     negative rho (up, down):  5.025E-04 0.000E+00

     total cpu time spent up to now is      341.3 secs

     total energy              =   -1463.18834910 Ry
     estimated scf accuracy    <       0.00000021 Ry

     iteration #  5     ecut=    40.00 Ry     beta= 0.50
     Davidson diagonalization with overlap
     ethr =  1.84E-10,  avg # of iterations =  2.0

     negative rho (up, down):  5.040E-04 0.000E+00

     total cpu time spent up to now is      353.9 secs

     total energy              =   -1463.18834912 Ry
     estimated scf accuracy    <       0.00000001 Ry

     iteration #  6     ecut=    40.00 Ry     beta= 0.50
     Davidson diagonalization with overlap
     ethr =  1.22E-11,  avg # of iterations =  8.2

     negative rho (up, down):  5.053E-04 0.000E+00

     total cpu time spent up to now is      371.1 secs

     total energy              =   -1463.18834913 Ry
     estimated scf accuracy    <       0.00000001 Ry

     iteration #  7     ecut=    40.00 Ry     beta= 0.50
     Davidson diagonalization with overlap
     ethr =  9.50E-12,  avg # of iterations =  1.2

     negative rho (up, down):  5.083E-04 0.000E+00

     total cpu time spent up to now is      384.1 secs

     total energy              =   -1463.18834912 Ry
     estimated scf accuracy    <       0.00000001 Ry

     iteration #  8     ecut=    40.00 Ry     beta= 0.50
     Davidson diagonalization with overlap
     ethr =  9.13E-12,  avg # of iterations =  2.0

     negative rho (up, down):  5.128E-04 0.000E+00

     total cpu time spent up to now is      395.1 secs

     End of self-consistent calculation

          k = 0.0278 0.0278 0.0000 ( 48321 PWs)   bands (ev):

   -19.4142 -10.3141  -8.9984  -8.6963  -8.6455  -8.0673  -7.9850  -7.5580
    -7.5105  -7.1167  -6.9680  -6.9221  -6.8334  -6.4951  -6.3588  -6.2925
    -6.1132  -5.7336  -5.5589  -5.2562  -5.2057  -5.0996  -4.8338  -4.5564
    -4.4059  -4.3922  -4.0912  -3.6611  -3.4506  -3.1506  -3.0931  -2.8420
    -2.7625  -2.4671  -2.3752  -2.2528  -1.9476  -1.8933  -1.8648  -1.7996
    -1.7645  -1.7186  -1.6503  -1.5726  -1.4819  -1.4659  -0.8876  -0.8601
    -0.7056  -0.5469  -0.4909  -0.3529  -0.3380  -0.2915  -0.2829  -0.1139
    -0.0977  -0.0689   0.1326   0.2767   0.3077   0.5333   0.5579   0.5817
     0.6178   0.7363   0.7702   1.1610

          k = 0.0278 0.0833 0.0000 ( 48286 PWs)   bands (ev):

   -19.4142 -10.2036  -9.2166  -8.8932  -8.5627  -7.9909  -7.9229  -7.6174
    -7.4271  -7.2879  -6.9922  -6.9313  -6.7499  -6.6249  -6.3904  -6.0480
    -5.8685  -5.6204  -5.5869  -5.4051  -5.0026  -4.9379  -4.5867  -4.3515
    -4.2329  -4.1572  -3.9946  -3.8391  -3.7315  -3.4638  -3.1446  -3.0636
    -2.9748  -2.8062  -2.6241  -2.3852  -2.1922  -2.1395  -2.0420  -1.7747
    -1.7664  -1.6945  -1.6673  -1.5052  -1.4381  -1.2681  -1.0843  -0.9875
    -0.9246  -0.8610  -0.8086  -0.7330  -0.5384  -0.4503  -0.2839  -0.0870
     0.1605   0.2557   0.3204   0.4170   0.5184   0.6890   0.7565   0.8614
     0.9218   1.1684   1.1995   1.3088

          k = 0.0278 0.1389 0.0000 ( 48332 PWs)   bands (ev):

   -19.4142  -9.9831  -9.6534  -8.6933  -8.3916  -8.3281  -8.0270  -7.7191
    -7.4414  -7.2105  -7.0640  -6.7167  -6.5627  -6.4780  -6.3182  -6.1982
    -5.9672  -5.7494  -5.3561  -5.0439  -4.8635  -4.7586  -4.5922  -4.2379
    -4.1788  -4.0181  -3.9600  -3.8197  -3.7173  -3.5706  -3.3764  -3.2817
    -3.1144  -2.9329  -2.8006  -2.5370  -2.4956  -2.4165  -2.1230  -2.0212
    -1.8853  -1.7205  -1.5727  -1.5182  -1.4932  -1.4720  -1.2848  -1.2629
    -1.1862  -1.0111  -0.9648  -0.6775  -0.3541  -0.3171  -0.1567   0.0236
     0.1439   0.2651   0.3773   0.6042   0.6620   0.7170   0.9000   0.9638
     1.0131   1.1438   1.4702   1.7075

          k = 0.0833 0.0833 0.0000 ( 48259 PWs)   bands (ev):

   -19.4142 -10.0933  -9.1295  -9.0829  -8.7905  -8.1329  -7.9476  -7.8139
    -7.3124  -7.1298  -7.0103  -6.7326  -6.6511  -6.4222  -6.1276  -6.0628
    -5.8321  -5.7357  -5.4925  -5.4232  -5.0006  -4.6382  -4.6164  -4.3147
    -4.1771  -4.1726  -3.9409  -3.8773  -3.6889  -3.3883  -3.2435  -3.2176
    -2.9888  -2.9327  -2.9121  -2.8803  -2.7842  -2.4796  -2.2833  -2.0127
    -2.0110  -1.8874  -1.6028  -1.5636  -1.1009  -1.0620  -0.8078  -0.7821
    -0.7575  -0.6555  -0.6132  -0.5284  -0.4258  -0.4112  -0.3167  -0.1137
    -0.0553   0.0557   0.1974   0.2265   0.5683   0.7764   0.8334   1.0121
     1.0189   1.1240   1.1766   1.4939

          k = 0.0833 0.1389 0.0000 ( 48265 PWs)   bands (ev):

   -19.4142  -9.8731  -9.5439  -8.8884  -8.6113  -8.5380  -8.2750  -7.6895
    -7.4337  -6.9696  -6.8251  -6.6337  -6.4659  -6.3259  -6.1784  -5.9689
    -5.5710  -5.4139  -5.3212  -5.2882  -5.1478  -4.9321  -4.8491  -4.3408
    -4.2615  -3.9915  -3.8698  -3.7640  -3.6663  -3.5584  -3.4504  -3.3433
    -3.3158  -3.0714  -2.8366  -2.7232  -2.7108  -2.5442  -2.4800  -2.4228
    -2.1927  -2.0187  -1.7449  -1.5866  -1.3600  -1.2305  -1.0823  -0.8890
    -0.8126  -0.5220  -0.4694  -0.3939  -0.2388  -0.2069  -0.1704  -0.1484
    -0.0137   0.1430   0.2584   0.6476   0.6842   0.8419   0.9256   1.0294
     1.0832   1.1979   1.2824   1.3476

          k = 0.1389 0.1389 0.0000 ( 48221 PWs)   bands (ev):

   -19.4142  -9.6535  -9.3449  -9.3034  -8.9967  -8.3858  -8.1514  -7.9899
    -7.7734  -6.7510  -6.7476  -6.1820  -6.0125  -5.9544  -5.8856  -5.7679
    -5.7104  -5.5373  -5.4740  -5.0670  -5.0210  -4.8864  -4.7601  -4.6559
    -4.6160  -4.5482  -4.3168  -3.9285  -3.6938  -3.6299  -3.4766  -3.4435
    -3.1351  -3.1068  -3.0349  -2.6871  -2.6471  -2.6235  -2.4955  -2.2596
    -2.0875  -1.9255  -1.6349  -1.6118  -1.3734  -1.3140  -1.1545  -0.9780
    -0.9590  -0.7961  -0.7222  -0.7060  -0.4187  -0.2815   0.0163   0.1560
     0.4161   0.4342   0.6043   0.8671   0.9045   0.9156   0.9323   1.0779
     1.0839   1.1320   1.2678   1.4951

     the Fermi energy is     0.1372 ev

!    total energy              =   -1463.18834912 Ry
     total all-electron energy =    -17633.175378 Ry
     estimated scf accuracy    <          9.1E-10 Ry
     smearing contrib. (-TS)   =       0.00176093 Ry
     internal energy E=F+TS    =   -1463.19011005 Ry

     The total energy is F=E-TS. E is the sum of the following terms:
     one-electron contribution =   -1668.37911532 Ry
     hartree contribution      =     863.07120136 Ry
     xc contribution           =     -98.52165038 Ry
     ewald contribution        =     698.53670740 Ry
     one-center paw contrib.   =   -1257.89725311 Ry

     convergence has been achieved in   8 iterations

     negative rho (up, down):  5.128E-04 0.000E+00

     Forces acting on atoms (cartesian axes, Ry/au):

     atom    1 type  1   force =    -0.00104684    0.00104684   -0.00378254
     atom    2 type  1   force =     0.00029760   -0.00000000   -0.00450213
     atom    3 type  1   force =    -0.00104684   -0.00104684   -0.00378254
     atom    4 type  1   force =     0.00104684    0.00104684   -0.00378254
     atom    5 type  1   force =    -0.00029760    0.00000000   -0.00450213
     atom    6 type  1   force =     0.00104684   -0.00104684   -0.00378254
     atom    7 type  1   force =    -0.00000000   -0.00029760   -0.00450213
     atom    8 type  1   force =     0.00000000    0.00000000   -0.00606918
     atom    9 type  1   force =     0.00000000    0.00029760   -0.00450213
     atom   10 type  1   force =    -0.00000000    0.00224250    0.00879019
     atom   11 type  1   force =     0.00000000   -0.00224250    0.00879019
     atom   12 type  1   force =     0.00000000    0.00000000    0.00846981
     atom   13 type  1   force =    -0.00255153   -0.00255153    0.00395473
     atom   14 type  1   force =    -0.00255153    0.00255153    0.00395473
     atom   15 type  1   force =     0.00224250    0.00000000    0.00879019
     atom   16 type  1   force =     0.00255153   -0.00255153    0.00395473
     atom   17 type  1   force =     0.00255153    0.00255153    0.00395473
     atom   18 type  1   force =    -0.00224250   -0.00000000    0.00879019
     atom   19 type  1   force =     0.00042124   -0.00042124   -0.00116998
     atom   20 type  1   force =     0.00021466    0.00000000   -0.00133529
     atom   21 type  1   force =     0.00042124    0.00042124   -0.00116998
     atom   22 type  1   force =    -0.00042124   -0.00042124   -0.00116998
     atom   23 type  1   force =    -0.00021466    0.00000000   -0.00133529
     atom   24 type  1   force =    -0.00042124    0.00042124   -0.00116998
     atom   25 type  1   force =    -0.00000000   -0.00021466   -0.00133529
     atom   26 type  1   force =     0.00000000    0.00000000    0.00014090
     atom   27 type  1   force =     0.00000000    0.00021466   -0.00133529
     atom   28 type  1   force =     0.00000000   -0.00015050   -0.00127080
     atom   29 type  1   force =     0.00000000    0.00015050   -0.00127080
     atom   30 type  1   force =     0.00000000    0.00000000   -0.00056154
     atom   31 type  1   force =     0.00029251    0.00029251   -0.00138285
     atom   32 type  1   force =     0.00029251   -0.00029251   -0.00138285
     atom   33 type  1   force =    -0.00015050    0.00000000   -0.00127080
     atom   34 type  1   force =    -0.00029251    0.00029251   -0.00138285
     atom   35 type  1   force =    -0.00029251   -0.00029251   -0.00138285
     atom   36 type  1   force =     0.00015050    0.00000000   -0.00127080
     atom   37 type  2   force =     0.00000000    0.00000000    0.00081476

     Total force =     0.005486     Total SCF correction =     0.000038
     Energy error            =      3.7E-05 Ry
     Gradient error          =      1.4E-03 Ry/Bohr

     number of scf cycles    =   3
     number of bfgs steps    =   2

     energy             old  =   -1463.1883125639 Ry
     energy             new  =   -1463.1883491194 Ry

     CASE: energy            _new < energy            _old

     new trust radius        =       0.0025406280 bohr
     new conv_thr            =       0.0000000010 Ry


ATOMIC_POSITIONS (alat)
Al               0.0000000000        0.0000000000        0.0000000000    0   0   0
Al               0.0000000000        0.9999999974        0.0000000000    0   0   0
Al               0.0000000000        1.9999999949        0.0000000000    0   0   0
Al               0.9999999974        0.0000000000        0.0000000000    0   0   0
Al               0.9999999974        0.9999999974        0.0000000000    0   0   0
Al               0.9999999974        1.9999999949        0.0000000000    0   0   0
Al               1.9999999949        0.0000000000        0.0000000000    0   0   0
Al               1.9999999949        0.9999999974        0.0000000000    0   0   0
Al               1.9999999949        1.9999999949        0.0000000000    0   0   0
Al               0.4999999987        0.4999999987        0.7071067672    0   0   0
Al               0.4999999987        1.4999999963        0.7071067672    0   0   0
Al               0.4999999987        2.4999999936        0.7071067672    0   0   0
Al               1.4999999963        0.4999999987        0.7071067672    0   0   0
Al               1.4999999963        1.4999999963        0.7071067672    0   0   0
Al               1.4999999963        2.4999999936        0.7071067672    0   0   0
Al               2.4999999936        0.4999999987        0.7071067672    0   0   0
Al               2.4999999936        1.4999999963        0.7071067672    0   0   0
Al               2.4999999936        2.4999999936        0.7071067672    0   0   0
Al              -0.0004989919        0.0004989919        1.4326327038
Al              -0.0069253934        0.9999999974        1.4629259277
Al              -0.0004989919        1.9995010031        1.4326291081
Al               1.0004989893        0.0004989919        1.4326291081
Al               1.0069253909        0.9999999974        1.4629249690
Al               1.0004989893        1.9995010031        1.4326281494
Al               1.9999999949        0.0069253934        1.4629259277
Al               1.9999999949        0.9999999974        1.3899066750
Al               1.9999999949        1.9930746015        1.4629249690
Al               0.4999999987        0.4985541569        2.1799227881
Al               0.4999999987        1.5014458380        2.1799216001
Al               0.4999999987        2.4999999936        2.1582354409
Al               1.5138019724        0.5138019750        2.1766004145
Al               1.5138019724        1.4861980200        2.1766026720
Al               1.4985541544        2.4999999936        2.1799216001
Al               2.4861980175        0.5138019750        2.1766016025
Al               2.4861980175        1.4861980200        2.1766004145
Al               2.5014458355        2.4999999936        2.1799227881
O                1.9999999996        0.9999999998        2.4198650163    0   0   1



     Writing config-only to output data dir ./tmp/Al.save/ :
     XML data file
     NEW-OLD atomic charge density approx. for the potential

     negative rho (up, down):  5.134E-04 0.000E+00

     total cpu time spent up to now is      406.2 secs

     Self-consistent Calculation

     iteration #  1     ecut=    40.00 Ry     beta= 0.50
     Davidson diagonalization with overlap
     ethr =  1.00E-06,  avg # of iterations =  2.0

     Threshold (ethr) on eigenvalues was too large:
     Diagonalizing with lowered threshold

     Davidson diagonalization with overlap
     ethr =  9.79E-10,  avg # of iterations = 11.2

     negative rho (up, down):  5.153E-04 0.000E+00

     total cpu time spent up to now is      439.9 secs

     total energy              =   -1463.18839980 Ry
     estimated scf accuracy    <       0.00000742 Ry

     iteration #  2     ecut=    40.00 Ry     beta= 0.50
     Davidson diagonalization with overlap
     ethr =  6.51E-09,  avg # of iterations =  1.0

     negative rho (up, down):  5.158E-04 0.000E+00

     total cpu time spent up to now is      452.3 secs

     total energy              =   -1463.18839933 Ry
     estimated scf accuracy    <       0.00000281 Ry

     iteration #  3     ecut=    40.00 Ry     beta= 0.50
     Davidson diagonalization with overlap
     ethr =  2.46E-09,  avg # of iterations =  2.7

     negative rho (up, down):  5.140E-04 0.000E+00

     total cpu time spent up to now is      466.2 secs

     total energy              =   -1463.18839969 Ry
     estimated scf accuracy    <       0.00000007 Ry

     iteration #  4     ecut=    40.00 Ry     beta= 0.50
     Davidson diagonalization with overlap
     ethr =  6.31E-11,  avg # of iterations =  7.7

     negative rho (up, down):  5.143E-04 0.000E+00

     total cpu time spent up to now is      484.4 secs

     total energy              =   -1463.18839974 Ry
     estimated scf accuracy    <       0.00000008 Ry

     iteration #  5     ecut=    40.00 Ry     beta= 0.50
     Davidson diagonalization with overlap
     ethr =  6.31E-11,  avg # of iterations =  1.0

     negative rho (up, down):  5.160E-04 0.000E+00

     total cpu time spent up to now is      496.8 secs

     total energy              =   -1463.18839973 Ry
     estimated scf accuracy    <       0.00000008 Ry

     iteration #  6     ecut=    40.00 Ry     beta= 0.50
     Davidson diagonalization with overlap
     ethr =  6.31E-11,  avg # of iterations =  1.3

     negative rho (up, down):  5.185E-04 0.000E+00

     total cpu time spent up to now is      509.7 secs

     total energy              =   -1463.18839971 Ry
     estimated scf accuracy    <       0.00000002 Ry

     iteration #  7     ecut=    40.00 Ry     beta= 0.50
     Davidson diagonalization with overlap
     ethr =  2.16E-11,  avg # of iterations =  6.0

     negative rho (up, down):  5.158E-04 0.000E+00

     total cpu time spent up to now is      526.8 secs

     total energy              =   -1463.18839972 Ry
     estimated scf accuracy    <       0.00000016 Ry

     iteration #  8     ecut=    40.00 Ry     beta= 0.50
     Davidson diagonalization with overlap
     ethr =  2.16E-11,  avg # of iterations =  3.3

     negative rho (up, down):  5.139E-04 0.000E+00

     total cpu time spent up to now is      541.4 secs

     total energy              =   -1463.18839973 Ry
     estimated scf accuracy    <       0.00000001 Ry

     iteration #  9     ecut=    40.00 Ry     beta= 0.50
     Davidson diagonalization with overlap
     ethr =  1.02E-11,  avg # of iterations =  4.2

     negative rho (up, down):  5.141E-04 0.000E+00

     total cpu time spent up to now is      557.8 secs

     total energy              =   -1463.18839973 Ry
     estimated scf accuracy    <          8.5E-09 Ry

     iteration # 10     ecut=    40.00 Ry     beta= 0.50
     Davidson diagonalization with overlap
     ethr =  7.50E-12,  avg # of iterations =  1.0

     negative rho (up, down):  5.138E-04 0.000E+00

     total cpu time spent up to now is      570.1 secs

     total energy              =   -1463.18839973 Ry
     estimated scf accuracy    <          2.5E-09 Ry

     iteration # 11     ecut=    40.00 Ry     beta= 0.50
     Davidson diagonalization with overlap
     ethr =  2.15E-12,  avg # of iterations =  1.3

     negative rho (up, down):  5.136E-04 0.000E+00

     total cpu time spent up to now is      582.8 secs

     total energy              =   -1463.18839973 Ry
     estimated scf accuracy    <          2.2E-09 Ry

     iteration # 12     ecut=    40.00 Ry     beta= 0.50
     Davidson diagonalization with overlap
     ethr =  1.91E-12,  avg # of iterations =  1.3

     negative rho (up, down):  5.129E-04 0.000E+00

     total cpu time spent up to now is      593.3 secs

     End of self-consistent calculation

          k = 0.0278 0.0278 0.0000 ( 48321 PWs)   bands (ev):

   -19.4119 -10.3159  -8.9988  -8.6981  -8.6472  -8.0689  -7.9866  -7.5575
    -7.5104  -7.1176  -6.9675  -6.9226  -6.8346  -6.4958  -6.3603  -6.2925
    -6.1134  -5.7348  -5.5595  -5.2570  -5.2061  -5.0996  -4.8342  -4.5567
    -4.4059  -4.3925  -4.0909  -3.6617  -3.4507  -3.1524  -3.0944  -2.8426
    -2.7630  -2.4666  -2.3750  -2.2530  -1.9480  -1.8942  -1.8652  -1.8004
    -1.7651  -1.7191  -1.6522  -1.5736  -1.4836  -1.4662  -0.8895  -0.8595
    -0.7059  -0.5473  -0.4909  -0.3529  -0.3385  -0.2915  -0.2824  -0.1143
    -0.0975  -0.0697   0.1321   0.2769   0.3081   0.5323   0.5569   0.5812
     0.6174   0.7351   0.7687   1.1608

          k = 0.0278 0.0833 0.0000 ( 48286 PWs)   bands (ev):

   -19.4119 -10.2055  -9.2183  -8.8935  -8.5644  -7.9909  -7.9243  -7.6187
    -7.4272  -7.2893  -6.9931  -6.9311  -6.7508  -6.6246  -6.3905  -6.0479
    -5.8690  -5.6220  -5.5869  -5.4055  -5.0031  -4.9394  -4.5869  -4.3525
    -4.2337  -4.1575  -3.9944  -3.8395  -3.7315  -3.4643  -3.1450  -3.0639
    -2.9760  -2.8074  -2.6250  -2.3850  -2.1937  -2.1408  -2.0428  -1.7753
    -1.7669  -1.6945  -1.6674  -1.5054  -1.4383  -1.2680  -1.0845  -0.9883
    -0.9258  -0.8609  -0.8082  -0.7331  -0.5391  -0.4518  -0.2844  -0.0865
     0.1589   0.2552   0.3202   0.4166   0.5187   0.6892   0.7564   0.8616
     0.9216   1.1684   1.1995   1.3082

          k = 0.0278 0.1389 0.0000 ( 48332 PWs)   bands (ev):

   -19.4119  -9.9850  -9.6551  -8.6935  -8.3921  -8.3296  -8.0287  -7.7205
    -7.4423  -7.2109  -7.0633  -6.7165  -6.5630  -6.4787  -6.3196  -6.1986
    -5.9672  -5.7491  -5.3577  -5.0440  -4.8641  -4.7601  -4.5929  -4.2379
    -4.1797  -4.0194  -3.9601  -3.8204  -3.7179  -3.5709  -3.3764  -3.2819
    -3.1158  -2.9333  -2.8022  -2.5384  -2.4964  -2.4172  -2.1226  -2.0215
    -1.8853  -1.7207  -1.5733  -1.5181  -1.4939  -1.4721  -1.2855  -1.2639
    -1.1864  -1.0112  -0.9652  -0.6780  -0.3547  -0.3174  -0.1566   0.0235
     0.1441   0.2642   0.3779   0.6037   0.6621   0.7173   0.8982   0.9622
     1.0135   1.1438   1.4704   1.7073

          k = 0.0833 0.0833 0.0000 ( 48259 PWs)   bands (ev):

   -19.4119 -10.0951  -9.1313  -9.0846  -8.7908  -8.1346  -7.9472  -7.8144
    -7.3129  -7.1311  -7.0107  -6.7318  -6.6520  -6.4219  -6.1291  -6.0643
    -5.8322  -5.7369  -5.4925  -5.4233  -5.0007  -4.6385  -4.6166  -4.3155
    -4.1790  -4.1743  -3.9410  -3.8774  -3.6895  -3.3887  -3.2451  -3.2193
    -2.9887  -2.9328  -2.9121  -2.8805  -2.7845  -2.4802  -2.2837  -2.0127
    -2.0107  -1.8894  -1.6032  -1.5633  -1.1008  -1.0622  -0.8078  -0.7828
    -0.7574  -0.6555  -0.6132  -0.5298  -0.4268  -0.4131  -0.3173  -0.1150
    -0.0559   0.0546   0.1976   0.2271   0.5682   0.7760   0.8331   1.0123
     1.0185   1.1238   1.1769   1.4931

          k = 0.0833 0.1389 0.0000 ( 48265 PWs)   bands (ev):

   -19.4119  -9.8749  -9.5457  -8.8901  -8.6118  -8.5395  -8.2752  -7.6894
    -7.4333  -6.9709  -6.8246  -6.6344  -6.4663  -6.3264  -6.1794  -5.9695
    -5.5715  -5.4143  -5.3224  -5.2895  -5.1489  -4.9321  -4.8491  -4.3415
    -4.2624  -3.9929  -3.8701  -3.7651  -3.6661  -3.5595  -3.4512  -3.3432
    -3.3171  -3.0717  -2.8367  -2.7233  -2.7108  -2.5445  -2.4817  -2.4227
    -2.1928  -2.0193  -1.7456  -1.5873  -1.3596  -1.2310  -1.0820  -0.8892
    -0.8131  -0.5221  -0.4693  -0.3937  -0.2401  -0.2067  -0.1706  -0.1502
    -0.0153   0.1429   0.2584   0.6458   0.6839   0.8421   0.9251   1.0291
     1.0824   1.1979   1.2819   1.3477

          k = 0.1389 0.1389 0.0000 ( 48221 PWs)   bands (ev):

   -19.4119  -9.6553  -9.3468  -9.3051  -8.9984  -8.3860  -8.1511  -7.9905
    -7.7736  -6.7500  -6.7463  -6.1825  -6.0140  -5.9558  -5.8866  -5.7691
    -5.7122  -5.5381  -5.4743  -5.0681  -5.0228  -4.8873  -4.7606  -4.6571
    -4.6168  -4.5483  -4.3170  -3.9285  -3.6944  -3.6302  -3.4766  -3.4430
    -3.1354  -3.1063  -3.0350  -2.6872  -2.6478  -2.6242  -2.4968  -2.2603
    -2.0892  -1.9257  -1.6357  -1.6128  -1.3737  -1.3146  -1.1543  -0.9787
    -0.9589  -0.7958  -0.7224  -0.7079  -0.4181  -0.2834   0.0170   0.1563
     0.4166   0.4346   0.6042   0.8671   0.9049   0.9154   0.9308   1.0775
     1.0822   1.1321   1.2663   1.4950

     the Fermi energy is     0.1368 ev

!    total energy              =   -1463.18839973 Ry
     total all-electron energy =    -17633.175429 Ry
     estimated scf accuracy    <          6.5E-10 Ry
     smearing contrib. (-TS)   =       0.00180723 Ry
     internal energy E=F+TS    =   -1463.19020696 Ry

     The total energy is F=E-TS. E is the sum of the following terms:
     one-electron contribution =   -1668.69140092 Ry
     hartree contribution      =     863.22629190 Ry
     xc contribution           =     -98.52393389 Ry
     ewald contribution        =     698.69644492 Ry
     one-center paw contrib.   =   -1257.89760897 Ry

     convergence has been achieved in  12 iterations

     negative rho (up, down):  5.129E-04 0.000E+00

     Forces acting on atoms (cartesian axes, Ry/au):

     atom    1 type  1   force =    -0.00104521    0.00104521   -0.00378188
     atom    2 type  1   force =     0.00029384    0.00000000   -0.00451009
     atom    3 type  1   force =    -0.00104521   -0.00104521   -0.00378188
     atom    4 type  1   force =     0.00104521    0.00104521   -0.00378188
     atom    5 type  1   force =    -0.00029384    0.00000000   -0.00451009
     atom    6 type  1   force =     0.00104521   -0.00104521   -0.00378188
     atom    7 type  1   force =     0.00000000   -0.00029384   -0.00451009
     atom    8 type  1   force =     0.00000000    0.00000000   -0.00607170
     atom    9 type  1   force =     0.00000000    0.00029384   -0.00451009
     atom   10 type  1   force =     0.00000000    0.00224652    0.00869302
     atom   11 type  1   force =     0.00000000   -0.00224652    0.00869302
     atom   12 type  1   force =     0.00000000    0.00000000    0.00834160
     atom   13 type  1   force =    -0.00253980   -0.00253980    0.00390273
     atom   14 type  1   force =    -0.00253980    0.00253980    0.00390273
     atom   15 type  1   force =     0.00224652    0.00000000    0.00869302
     atom   16 type  1   force =     0.00253980   -0.00253980    0.00390273
     atom   17 type  1   force =     0.00253980    0.00253980    0.00390273
     atom   18 type  1   force =    -0.00224652    0.00000000    0.00869302
     atom   19 type  1   force =     0.00035833   -0.00035833   -0.00107534
     atom   20 type  1   force =     0.00018240    0.00000000   -0.00125264
     atom   21 type  1   force =     0.00035833    0.00035833   -0.00107534
     atom   22 type  1   force =    -0.00035833   -0.00035833   -0.00107534
     atom   23 type  1   force =    -0.00018240    0.00000000   -0.00125264
     atom   24 type  1   force =    -0.00035833    0.00035833   -0.00107534
     atom   25 type  1   force =    -0.00000000   -0.00018240   -0.00125264
     atom   26 type  1   force =     0.00000000    0.00000000    0.00005923
     atom   27 type  1   force =     0.00000000    0.00018240   -0.00125264
     atom   28 type  1   force =     0.00000000   -0.00013152   -0.00125061
     atom   29 type  1   force =     0.00000000    0.00013152   -0.00125061
     atom   30 type  1   force =     0.00000000    0.00000000   -0.00055693
     atom   31 type  1   force =     0.00025709    0.00025709   -0.00132038
     atom   32 type  1   force =     0.00025709   -0.00025709   -0.00132038
     atom   33 type  1   force =    -0.00013152    0.00000000   -0.00125061
     atom   34 type  1   force =    -0.00025709    0.00025709   -0.00132038
     atom   35 type  1   force =    -0.00025709   -0.00025709   -0.00132038
     atom   36 type  1   force =     0.00013152    0.00000000   -0.00125061
     atom   37 type  2   force =     0.00000000    0.00000000    0.00060853

     Total force =     0.005155     Total SCF correction =     0.000038
     Energy error            =      5.1E-05 Ry
     Gradient error          =      1.3E-03 Ry/Bohr

     number of scf cycles    =   4
     number of bfgs steps    =   3

     energy             old  =   -1463.1883491194 Ry
     energy             new  =   -1463.1883997284 Ry

     CASE: energy            _new < energy            _old

     new trust radius        =       0.0038109419 bohr
     new conv_thr            =       0.0000000010 Ry


ATOMIC_POSITIONS (alat)
Al               0.0000000000        0.0000000000        0.0000000000    0   0   0
Al               0.0000000000        0.9999999974        0.0000000000    0   0   0
Al               0.0000000000        1.9999999949        0.0000000000    0   0   0
Al               0.9999999974        0.0000000000        0.0000000000    0   0   0
Al               0.9999999974        0.9999999974        0.0000000000    0   0   0
Al               0.9999999974        1.9999999949        0.0000000000    0   0   0
Al               1.9999999949        0.0000000000        0.0000000000    0   0   0
Al               1.9999999949        0.9999999974        0.0000000000    0   0   0
Al               1.9999999949        1.9999999949        0.0000000000    0   0   0
Al               0.4999999987        0.4999999987        0.7071067672    0   0   0
Al               0.4999999987        1.4999999963        0.7071067672    0   0   0
Al               0.4999999987        2.4999999936        0.7071067672    0   0   0
Al               1.4999999963        0.4999999987        0.7071067672    0   0   0
Al               1.4999999963        1.4999999963        0.7071067672    0   0   0
Al               1.4999999963        2.4999999936        0.7071067672    0   0   0
Al               2.4999999936        0.4999999987        0.7071067672    0   0   0
Al               2.4999999936        1.4999999963        0.7071067672    0   0   0
Al               2.4999999936        2.4999999936        0.7071067672    0   0   0
Al              -0.0004154017        0.0004154017        1.4321701487
Al              -0.0068750837        0.9999999974        1.4623366791
Al              -0.0004154017        1.9995845933        1.4321665530
Al               1.0004153991        0.0004154017        1.4321665530
Al               1.0068750812        0.9999999974        1.4623357204
Al               1.0004153991        1.9995845933        1.4321655943
Al               1.9999999949        0.0068750837        1.4623366791
Al               1.9999999949        0.9999999974        1.3897919380
Al               1.9999999949        1.9931249112        1.4623357204
Al               0.4999999987        0.4985069711        2.1792179046
Al               0.4999999987        1.5014930238        2.1792167166
Al               0.4999999987        2.4999999936        2.1579274037
Al               1.5139057641        0.5139057667        2.1759449854
Al               1.5139057641        1.4860942283        2.1759472429
Al               1.4985069686        2.4999999936        2.1792167166
Al               2.4860942257        0.5139057667        2.1759461734
Al               2.4860942257        1.4860942283        2.1759449854
Al               2.5014930213        2.4999999936        2.1792179046
O                1.9999999996        0.9999999998        2.4197993362    0   0   1



     Writing config-only to output data dir ./tmp/Al.save/ :
     XML data file
     NEW-OLD atomic charge density approx. for the potential

     negative rho (up, down):  5.140E-04 0.000E+00

     total cpu time spent up to now is      604.3 secs

     Self-consistent Calculation

     iteration #  1     ecut=    40.00 Ry     beta= 0.50
     Davidson diagonalization with overlap
     ethr =  1.00E-06,  avg # of iterations =  2.0

     Threshold (ethr) on eigenvalues was too large:
     Diagonalizing with lowered threshold

     Davidson diagonalization with overlap
     ethr =  2.15E-09,  avg # of iterations =  9.8

     negative rho (up, down):  5.152E-04 0.000E+00

     total cpu time spent up to now is      637.5 secs

     total energy              =   -1463.18846549 Ry
     estimated scf accuracy    <       0.00001243 Ry

     iteration #  2     ecut=    40.00 Ry     beta= 0.50
     Davidson diagonalization with overlap
     ethr =  1.09E-08,  avg # of iterations =  1.0

     negative rho (up, down):  5.129E-04 0.000E+00

     total cpu time spent up to now is      649.9 secs

     total energy              =   -1463.18846459 Ry
     estimated scf accuracy    <       0.00000499 Ry

     iteration #  3     ecut=    40.00 Ry     beta= 0.50
     Davidson diagonalization with overlap
     ethr =  4.38E-09,  avg # of iterations =  3.2

     negative rho (up, down):  5.115E-04 0.000E+00

     total cpu time spent up to now is      663.9 secs

     total energy              =   -1463.18846534 Ry
     estimated scf accuracy    <       0.00000024 Ry

     iteration #  4     ecut=    40.00 Ry     beta= 0.50
     Davidson diagonalization with overlap
     ethr =  2.12E-10,  avg # of iterations =  5.3

     negative rho (up, down):  5.117E-04 0.000E+00

     total cpu time spent up to now is      680.1 secs

     total energy              =   -1463.18846539 Ry
     estimated scf accuracy    <       0.00000025 Ry

     iteration #  5     ecut=    40.00 Ry     beta= 0.50
     Davidson diagonalization with overlap
     ethr =  2.12E-10,  avg # of iterations =  1.0

     negative rho (up, down):  5.147E-04 0.000E+00

     total cpu time spent up to now is      692.3 secs

     total energy              =   -1463.18846536 Ry
     estimated scf accuracy    <       0.00000015 Ry

     iteration #  6     ecut=    40.00 Ry     beta= 0.50
     Davidson diagonalization with overlap
     ethr =  1.32E-10,  avg # of iterations =  3.3

     negative rho (up, down):  5.148E-04 0.000E+00

     total cpu time spent up to now is      706.2 secs

     total energy              =   -1463.18846537 Ry
     estimated scf accuracy    <          3.7E-09 Ry

     iteration #  7     ecut=    40.00 Ry     beta= 0.50
     Davidson diagonalization with overlap
     ethr =  3.23E-12,  avg # of iterations = 10.5

     negative rho (up, down):  5.139E-04 0.000E+00

     total cpu time spent up to now is      727.7 secs

     total energy              =   -1463.18846539 Ry
     estimated scf accuracy    <       0.00000004 Ry

     iteration #  8     ecut=    40.00 Ry     beta= 0.50
     Davidson diagonalization with overlap
     ethr =  3.23E-12,  avg # of iterations =  2.5

     negative rho (up, down):  5.124E-04 0.000E+00

     total cpu time spent up to now is      741.5 secs

     total energy              =   -1463.18846539 Ry
     estimated scf accuracy    <       0.00000002 Ry

     iteration #  9     ecut=    40.00 Ry     beta= 0.50
     Davidson diagonalization with overlap
     ethr =  3.23E-12,  avg # of iterations =  5.0

     negative rho (up, down):  5.131E-04 0.000E+00

     total cpu time spent up to now is      754.9 secs

     End of self-consistent calculation

          k = 0.0278 0.0278 0.0000 ( 48321 PWs)   bands (ev):

   -19.4106 -10.3185  -8.9994  -8.7007  -8.6497  -8.0712  -7.9891  -7.5575
    -7.5107  -7.1192  -6.9676  -6.9234  -6.8362  -6.4973  -6.3626  -6.2930
    -6.1143  -5.7368  -5.5605  -5.2582  -5.2069  -5.1000  -4.8350  -4.5574
    -4.4063  -4.3931  -4.0904  -3.6627  -3.4513  -3.1549  -3.0962  -2.8436
    -2.7638  -2.4658  -2.3747  -2.2532  -1.9487  -1.8955  -1.8660  -1.8016
    -1.7658  -1.7197  -1.6549  -1.5749  -1.4862  -1.4667  -0.8921  -0.8589
    -0.7065  -0.5479  -0.4913  -0.3531  -0.3391  -0.2916  -0.2818  -0.1149
    -0.0973  -0.0709   0.1314   0.2773   0.3086   0.5311   0.5557   0.5804
     0.6167   0.7333   0.7665   1.1604

          k = 0.0278 0.0833 0.0000 ( 48286 PWs)   bands (ev):

   -19.4106 -10.2081  -9.2209  -8.8942  -8.5669  -7.9914  -7.9266  -7.6208
    -7.4277  -7.2915  -6.9948  -6.9313  -6.7520  -6.6249  -6.3911  -6.0484
    -5.8698  -5.6243  -5.5872  -5.4064  -5.0040  -4.9417  -4.5876  -4.3541
    -4.2350  -4.1582  -3.9938  -3.8401  -3.7320  -3.4651  -3.1458  -3.0645
    -2.9775  -2.8092  -2.6264  -2.3847  -2.1960  -2.1427  -2.0441  -1.7766
    -1.7674  -1.6945  -1.6673  -1.5057  -1.4387  -1.2681  -1.0848  -0.9896
    -0.9275  -0.8608  -0.8076  -0.7332  -0.5403  -0.4538  -0.2851  -0.0860
     0.1565   0.2544   0.3201   0.4159   0.5192   0.6894   0.7563   0.8619
     0.9213   1.1684   1.1995   1.3074

          k = 0.0278 0.1389 0.0000 ( 48332 PWs)   bands (ev):

   -19.4106  -9.9876  -9.6578  -8.6941  -8.3931  -8.3317  -8.0312  -7.7227
    -7.4439  -7.2118  -7.0632  -6.7169  -6.5638  -6.4798  -6.3217  -6.1993
    -5.9676  -5.7494  -5.3601  -5.0446  -4.8650  -4.7624  -4.5939  -4.2383
    -4.1812  -4.0212  -3.9606  -3.8212  -3.7187  -3.5713  -3.3766  -3.2825
    -3.1177  -2.9341  -2.8046  -2.5405  -2.4975  -2.4183  -2.1221  -2.0220
    -1.8854  -1.7211  -1.5743  -1.5179  -1.4947  -1.4721  -1.2867  -1.2651
    -1.1865  -1.0113  -0.9656  -0.6786  -0.3556  -0.3180  -0.1565   0.0233
     0.1444   0.2632   0.3786   0.6031   0.6623   0.7178   0.8956   0.9600
     1.0140   1.1439   1.4708   1.7070

          k = 0.0833 0.0833 0.0000 ( 48259 PWs)   bands (ev):

   -19.4106 -10.0978  -9.1339  -9.0871  -8.7915  -8.1371  -7.9472  -7.8152
    -7.3142  -7.1334  -7.0117  -6.7318  -6.6532  -6.4221  -6.1315  -6.0665
    -5.8326  -5.7384  -5.4928  -5.4239  -5.0013  -4.6391  -4.6172  -4.3172
    -4.1817  -4.1768  -3.9414  -3.8774  -3.6904  -3.3893  -3.2473  -3.2219
    -2.9886  -2.9328  -2.9121  -2.8811  -2.7850  -2.4810  -2.2843  -2.0131
    -2.0104  -1.8921  -1.6037  -1.5627  -1.1004  -1.0623  -0.8078  -0.7838
    -0.7573  -0.6556  -0.6133  -0.5315  -0.4282  -0.4156  -0.3181  -0.1170
    -0.0566   0.0532   0.1980   0.2278   0.5679   0.7753   0.8326   1.0126
     1.0178   1.1233   1.1774   1.4921

          k = 0.0833 0.1389 0.0000 ( 48265 PWs)   bands (ev):

   -19.4106  -9.8775  -9.5483  -8.8926  -8.6128  -8.5416  -8.2758  -7.6898
    -7.4335  -6.9731  -6.8249  -6.6357  -6.4672  -6.3276  -6.1810  -5.9704
    -5.5724  -5.4151  -5.3242  -5.2916  -5.1505  -4.9326  -4.8495  -4.3429
    -4.2639  -3.9951  -3.8706  -3.7668  -3.6656  -3.5611  -3.4525  -3.3429
    -3.3188  -3.0724  -2.8371  -2.7235  -2.7110  -2.5450  -2.4841  -2.4225
    -2.1930  -2.0203  -1.7465  -1.5881  -1.3590  -1.2319  -1.0815  -0.8893
    -0.8137  -0.5220  -0.4693  -0.3935  -0.2420  -0.2065  -0.1707  -0.1527
    -0.0177   0.1426   0.2583   0.6432   0.6835   0.8423   0.9243   1.0286
     1.0811   1.1979   1.2812   1.3478

          k = 0.1389 0.1389 0.0000 ( 48221 PWs)   bands (ev):

   -19.4106  -9.6579  -9.3494  -9.3077  -9.0010  -8.3865  -8.1512  -7.9915
    -7.7741  -6.7497  -6.7457  -6.1835  -6.0163  -5.9576  -5.8880  -5.7709
    -5.7148  -5.5396  -5.4750  -5.0702  -5.0253  -4.8890  -4.7617  -4.6591
    -4.6183  -4.5488  -4.3176  -3.9289  -3.6952  -3.6306  -3.4769  -3.4423
    -3.1354  -3.1056  -3.0352  -2.6875  -2.6486  -2.6253  -2.4984  -2.2614
    -2.0916  -1.9262  -1.6368  -1.6140  -1.3743  -1.3154  -1.1541  -0.9796
    -0.9587  -0.7952  -0.7228  -0.7105  -0.4174  -0.2862   0.0182   0.1569
     0.4175   0.4348   0.6038   0.8668   0.9054   0.9153   0.9285   1.0769
     1.0799   1.1323   1.2644   1.4947

     the Fermi energy is     0.1362 ev

!    total energy              =   -1463.18846539 Ry
     total all-electron energy =    -17633.175495 Ry
     estimated scf accuracy    <          2.6E-10 Ry
     smearing contrib. (-TS)   =       0.00187288 Ry
     internal energy E=F+TS    =   -1463.19033826 Ry

     The total energy is F=E-TS. E is the sum of the following terms:
     one-electron contribution =   -1669.21773881 Ry
     hartree contribution      =     863.48881531 Ry
     xc contribution           =     -98.52768288 Ry
     ewald contribution        =     698.96442803 Ry
     one-center paw contrib.   =   -1257.89815992 Ry

     convergence has been achieved in   9 iterations

     negative rho (up, down):  5.131E-04 0.000E+00

     Forces acting on atoms (cartesian axes, Ry/au):

     atom    1 type  1   force =    -0.00104382    0.00104382   -0.00378162
     atom    2 type  1   force =     0.00029028    0.00000000   -0.00452010
     atom    3 type  1   force =    -0.00104382   -0.00104382   -0.00378162
     atom    4 type  1   force =     0.00104382    0.00104382   -0.00378162
     atom    5 type  1   force =    -0.00029028    0.00000000   -0.00452010
     atom    6 type  1   force =     0.00104382   -0.00104382   -0.00378162
     atom    7 type  1   force =     0.00000000   -0.00029028   -0.00452010
     atom    8 type  1   force =     0.00000000    0.00000000   -0.00607453
     atom    9 type  1   force =     0.00000000    0.00029028   -0.00452010
     atom   10 type  1   force =     0.00000000    0.00225010    0.00856789
     atom   11 type  1   force =     0.00000000   -0.00225010    0.00856789
     atom   12 type  1   force =     0.00000000    0.00000000    0.00820417
     atom   13 type  1   force =    -0.00253142   -0.00253142    0.00381524
     atom   14 type  1   force =    -0.00253142    0.00253142    0.00381524
     atom   15 type  1   force =     0.00225010    0.00000000    0.00856789
     atom   16 type  1   force =     0.00253142   -0.00253142    0.00381524
     atom   17 type  1   force =     0.00253142    0.00253142    0.00381524
     atom   18 type  1   force =    -0.00225010    0.00000000    0.00856789
     atom   19 type  1   force =     0.00031809   -0.00031809   -0.00097937
     atom   20 type  1   force =     0.00014882   -0.00000000   -0.00115986
     atom   21 type  1   force =     0.00031809    0.00031809   -0.00097937
     atom   22 type  1   force =    -0.00031809   -0.00031809   -0.00097937
     atom   23 type  1   force =    -0.00014882    0.00000000   -0.00115986
     atom   24 type  1   force =    -0.00031809    0.00031809   -0.00097937
     atom   25 type  1   force =     0.00000000   -0.00014882   -0.00115986
     atom   26 type  1   force =     0.00000000    0.00000000   -0.00000936
     atom   27 type  1   force =     0.00000000    0.00014882   -0.00115986
     atom   28 type  1   force =     0.00000000   -0.00010884   -0.00119641
     atom   29 type  1   force =     0.00000000    0.00010884   -0.00119641
     atom   30 type  1   force =     0.00000000    0.00000000   -0.00055977
     atom   31 type  1   force =     0.00020759    0.00020759   -0.00124881
     atom   32 type  1   force =     0.00020759   -0.00020759   -0.00124881
     atom   33 type  1   force =    -0.00010884    0.00000000   -0.00119641
     atom   34 type  1   force =    -0.00020759    0.00020759   -0.00124881
     atom   35 type  1   force =    -0.00020759   -0.00020759   -0.00124881
     atom   36 type  1   force =     0.00010884    0.00000000   -0.00119641
     atom   37 type  2   force =     0.00000000    0.00000000    0.00045166

     Total force =     0.004795     Total SCF correction =     0.000023
     Energy error            =      6.6E-05 Ry
     Gradient error          =      1.2E-03 Ry/Bohr

     number of scf cycles    =   5
     number of bfgs steps    =   4

     energy             old  =   -1463.1883997284 Ry
     energy             new  =   -1463.1884653871 Ry

     CASE: energy            _new < energy            _old

     new trust radius        =       0.0057164129 bohr
     new conv_thr            =       0.0000000010 Ry


ATOMIC_POSITIONS (alat)
Al               0.0000000000        0.0000000000        0.0000000000    0   0   0
Al               0.0000000000        0.9999999974        0.0000000000    0   0   0
Al               0.0000000000        1.9999999948        0.0000000000    0   0   0
[...]
     NEW-OLD atomic charge density approx. for the potential

     negative rho (up, down):  5.229E-04 0.000E+00

     total cpu time spent up to now is     1613.5 secs

     Self-consistent Calculation

     iteration #  1     ecut=    40.00 Ry     beta= 0.50
     Davidson diagonalization with overlap
     ethr =  1.00E-06,  avg # of iterations =  5.5

     negative rho (up, down):  5.629E-04 0.000E+00

     total cpu time spent up to now is     1635.2 secs

     total energy              =   -1463.18897611 Ry
     estimated scf accuracy    <       0.00011459 Ry

     iteration #  2     ecut=    40.00 Ry     beta= 0.50
     Davidson diagonalization with overlap
     ethr =  1.01E-07,  avg # of iterations =  5.3

     negative rho (up, down):  5.872E-04 0.000E+00

     total cpu time spent up to now is     1654.6 secs

     total energy              =   -1463.18900842 Ry
     estimated scf accuracy    <       0.00016087 Ry

     iteration #  3     ecut=    40.00 Ry     beta= 0.50
     Davidson diagonalization with overlap
     ethr =  1.01E-07,  avg # of iterations =  1.0

     negative rho (up, down):  2.842E-04 0.000E+00

     total cpu time spent up to now is     1669.1 secs

     total energy              =   -1463.18897084 Ry
     estimated scf accuracy    <       0.00017640 Ry

     iteration #  4     ecut=    40.00 Ry     beta= 0.50
     Davidson diagonalization with overlap
     ethr =  1.01E-07,  avg # of iterations =  2.0

     negative rho (up, down):  3.013E-04 0.000E+00

     total cpu time spent up to now is     1685.0 secs

     total energy              =   -1463.18898942 Ry
     estimated scf accuracy    <       0.00003921 Ry

     iteration #  5     ecut=    40.00 Ry     beta= 0.50
     Davidson diagonalization with overlap
     ethr =  3.44E-08,  avg # of iterations =  1.2

     negative rho (up, down):  2.879E-04 0.000E+00

     total cpu time spent up to now is     1699.6 secs

     total energy              =   -1463.18899063 Ry
     estimated scf accuracy    <       0.00003664 Ry

     iteration #  6     ecut=    40.00 Ry     beta= 0.50
     Davidson diagonalization with overlap
     ethr =  3.21E-08,  avg # of iterations =  1.2

     negative rho (up, down):  2.550E-04 0.000E+00

     total cpu time spent up to now is     1713.8 secs

     total energy              =   -1463.18898848 Ry
     estimated scf accuracy    <       0.00003018 Ry

     iteration #  7     ecut=    40.00 Ry     beta= 0.50
     Davidson diagonalization with overlap
     ethr =  2.65E-08,  avg # of iterations =  1.2

     negative rho (up, down):  2.849E-04 0.000E+00

     total cpu time spent up to now is     1728.0 secs

     total energy              =   -1463.18898921 Ry
     estimated scf accuracy    <       0.00001188 Ry

     iteration #  8     ecut=    40.00 Ry     beta= 0.50
     Davidson diagonalization with overlap
     ethr =  1.04E-08,  avg # of iterations =  4.3

     negative rho (up, down):  3.463E-04 0.000E+00

     total cpu time spent up to now is     1744.3 secs

     total energy              =   -1463.18898847 Ry
     estimated scf accuracy    <       0.00000777 Ry

     iteration #  9     ecut=    40.00 Ry     beta= 0.50
     Davidson diagonalization with overlap
     ethr =  6.82E-09,  avg # of iterations =  4.7

     negative rho (up, down):  3.798E-04 0.000E+00

     total cpu time spent up to now is     1761.9 secs

     total energy              =   -1463.18899024 Ry
     estimated scf accuracy    <       0.00000043 Ry

     iteration # 10     ecut=    40.00 Ry     beta= 0.50
     Davidson diagonalization with overlap
     ethr =  3.79E-10,  avg # of iterations =  8.2

     negative rho (up, down):  4.372E-04 0.000E+00

     total cpu time spent up to now is     1782.1 secs

     total energy              =   -1463.18899057 Ry
     estimated scf accuracy    <       0.00000048 Ry

     iteration # 11     ecut=    40.00 Ry     beta= 0.50
     Davidson diagonalization with overlap
     ethr =  3.79E-10,  avg # of iterations =  3.7

     negative rho (up, down):  4.810E-04 0.000E+00

     total cpu time spent up to now is     1798.9 secs

     total energy              =   -1463.18899076 Ry
     estimated scf accuracy    <       0.00000011 Ry

     iteration # 12     ecut=    40.00 Ry     beta= 0.50
     Davidson diagonalization with overlap
     ethr =  9.42E-11,  avg # of iterations =  3.0

     negative rho (up, down):  4.941E-04 0.000E+00

     total cpu time spent up to now is     1814.4 secs

     total energy              =   -1463.18899077 Ry
     estimated scf accuracy    <       0.00000006 Ry

     iteration # 13     ecut=    40.00 Ry     beta= 0.50
     Davidson diagonalization with overlap
     ethr =  5.68E-11,  avg # of iterations =  2.8

     negative rho (up, down):  5.068E-04 0.000E+00

     total cpu time spent up to now is     1830.2 secs

     total energy              =   -1463.18899078 Ry
     estimated scf accuracy    <          4.8E-09 Ry

     iteration # 14     ecut=    40.00 Ry     beta= 0.50
     Davidson diagonalization with overlap
     ethr =  4.19E-12,  avg # of iterations = 11.5

     negative rho (up, down):  5.087E-04 0.000E+00

     total cpu time spent up to now is     1851.9 secs

     total energy              =   -1463.18899177 Ry
     estimated scf accuracy    <          3.3E-09 Ry

     iteration # 15     ecut=    40.00 Ry     beta= 0.50
     Davidson diagonalization with overlap
     ethr =  2.85E-12,  avg # of iterations =  2.7

     negative rho (up, down):  5.124E-04 0.000E+00

     total cpu time spent up to now is     1867.2 secs

     total energy              =   -1463.18899179 Ry
     estimated scf accuracy    <          1.4E-09 Ry

     iteration # 16     ecut=    40.00 Ry     beta= 0.50
     Davidson diagonalization with overlap
     ethr =  1.26E-12,  avg # of iterations =  5.3

     negative rho (up, down):  5.138E-04 0.000E+00

     total cpu time spent up to now is     1885.2 secs

     total energy              =   -1463.18899179 Ry
     estimated scf accuracy    <          1.2E-09 Ry

     iteration # 17     ecut=    40.00 Ry     beta= 0.50
     Davidson diagonalization with overlap
     ethr =  1.09E-12,  avg # of iterations =  1.0

     negative rho (up, down):  5.156E-04 0.000E+00

     total cpu time spent up to now is     1898.6 secs

     End of self-consistent calculation

          k = 0.0278 0.0278 0.0000 ( 48321 PWs)   bands (ev):

   -19.4023 -10.3627  -9.0137  -8.7439  -8.6939  -8.1126  -8.0331  -7.5650
    -7.5215  -7.1489  -6.9761  -6.9400  -6.8566  -6.5270  -6.4041  -6.3056
    -6.1327  -5.7716  -5.5798  -5.2729  -5.2201  -5.1116  -4.8485  -4.5695
    -4.4164  -4.4033  -4.0757  -3.6756  -3.4658  -3.1979  -3.1280  -2.8563
    -2.7751  -2.4538  -2.3716  -2.2576  -1.9676  -1.9134  -1.8842  -1.8262
    -1.7678  -1.7275  -1.7015  -1.5920  -1.5264  -1.4711  -0.9373  -0.8481
    -0.7171  -0.5589  -0.5042  -0.3591  -0.3475  -0.2893  -0.2700  -0.1357
    -0.0958  -0.0797   0.1198   0.2827   0.3206   0.5074   0.5382   0.5677
     0.6066   0.7080   0.7322   1.1532

          k = 0.0278 0.0833 0.0000 ( 48286 PWs)   bands (ev):

   -19.4023 -10.2523  -9.2647  -8.9084  -8.6104  -8.0070  -7.9645  -7.6594
    -7.4404  -7.3311  -7.0276  -6.9403  -6.7712  -6.6336  -6.4048  -6.0602
    -5.8829  -5.6636  -5.5989  -5.4217  -5.0198  -4.9798  -4.6005  -4.3849
    -4.2549  -4.1707  -3.9800  -3.8524  -3.7438  -3.4779  -3.1599  -3.0786
    -2.9934  -2.8413  -2.6477  -2.3770  -2.2353  -2.1759  -2.0641  -1.8093
    -1.7667  -1.6935  -1.6604  -1.5116  -1.4419  -1.2702  -1.0930  -1.0169
    -0.9501  -0.8580  -0.7977  -0.7319  -0.5609  -0.4818  -0.2936  -0.0751
     0.1154   0.2419   0.3204   0.4072   0.5275   0.6913   0.7546   0.8669
     0.9186   1.1668   1.2008   1.2866

          k = 0.0278 0.1389 0.0000 ( 48332 PWs)   bands (ev):

   -19.4023 -10.0317  -9.7018  -8.7074  -8.4191  -8.3628  -8.0737  -7.7634
    -7.4756  -7.2299  -7.0687  -6.7281  -6.5787  -6.5004  -6.3530  -6.2128
    -5.9775  -5.7593  -5.4007  -5.0575  -4.8791  -4.8007  -4.6088  -4.2506
    -4.2092  -4.0479  -3.9745  -3.8398  -3.7231  -3.5769  -3.3786  -3.2982
    -3.1494  -2.9504  -2.8430  -2.5760  -2.5154  -2.4343  -2.1113  -2.0309
    -1.8890  -1.7251  -1.5977  -1.5186  -1.4994  -1.4696  -1.3128  -1.2805
    -1.1808  -1.0141  -0.9644  -0.6881  -0.3695  -0.3275  -0.1546   0.0204
     0.1508   0.2520   0.3913   0.5943   0.6660   0.7287   0.8514   0.9230
     1.0220   1.1464   1.4774   1.7015

          k = 0.0833 0.0833 0.0000 ( 48259 PWs)   bands (ev):

   -19.4023 -10.1419  -9.1770  -9.1318  -8.8055  -8.1800  -7.9558  -7.8303
    -7.3412  -7.1749  -7.0314  -6.7404  -6.6684  -6.4314  -6.1722  -6.1048
    -5.8437  -5.7566  -5.5017  -5.4356  -5.0134  -4.6534  -4.6291  -4.3524
    -4.2251  -4.2186  -3.9536  -3.8692  -3.7029  -3.4004  -3.2837  -3.2671
    -2.9920  -2.9300  -2.9112  -2.8906  -2.7920  -2.4947  -2.2919  -2.0272
    -2.0050  -1.9344  -1.6105  -1.5495  -1.0946  -1.0625  -0.8062  -0.7980
    -0.7572  -0.6595  -0.6148  -0.5587  -0.4570  -0.4487  -0.3260  -0.1525
    -0.0637   0.0332   0.2063   0.2407   0.5625   0.7621   0.8221   1.0066
     1.0176   1.1125   1.1856   1.3703

          k = 0.0833 0.1389 0.0000 ( 48265 PWs)   bands (ev):

   -19.4023  -9.9216  -9.5923  -8.9364  -8.6382  -8.5731  -8.2889  -7.7011
    -7.4423  -7.0118  -6.8391  -6.6598  -6.4867  -6.3518  -6.2056  -5.9847
    -5.5874  -5.4293  -5.3598  -5.3263  -5.1748  -4.9443  -4.8619  -4.3714
    -4.2897  -4.0343  -3.8825  -3.7961  -3.6558  -3.5862  -3.4793  -3.3461
    -3.3297  -3.0850  -2.8469  -2.7315  -2.7127  -2.5534  -2.5214  -2.4207
    -2.1968  -2.0348  -1.7588  -1.5984  -1.3469  -1.2464  -1.0701  -0.8888
    -0.8201  -0.5178  -0.4677  -0.3902  -0.2749  -0.2072  -0.1876  -0.1682
    -0.0553   0.1403   0.2588   0.5991   0.6791   0.8427   0.9080   1.0188
     1.0626   1.1964   1.2727   1.3535

          k = 0.1389 0.1389 0.0000 ( 48221 PWs)   bands (ev):

   -19.4022  -9.7019  -9.3928  -9.3524  -9.0448  -8.3990  -8.1603  -8.0081
    -7.7863  -6.7550  -6.7479  -6.2046  -6.0565  -5.9852  -5.9044  -5.8044
    -5.7566  -5.5634  -5.4883  -5.1069  -5.0673  -4.9203  -4.7864  -4.6920
    -4.6432  -4.5604  -4.3308  -3.9399  -3.7101  -3.6404  -3.4883  -3.4285
    -3.1302  -3.0918  -3.0335  -2.7059  -2.6614  -2.6362  -2.5171  -2.2827
    -2.1291  -1.9356  -1.6514  -1.6282  -1.3848  -1.3283  -1.1491  -0.9893
    -0.9569  -0.7820  -0.7498  -0.7248  -0.4057  -0.3306   0.0377   0.1706
     0.4333   0.4359   0.5980   0.8574   0.8842   0.9128   0.9190   1.0372
     1.0657   1.1402   1.2397   1.4917

     the Fermi energy is     0.1279 ev

!    total energy              =   -1463.18899179 Ry
     total all-electron energy =    -17633.176021 Ry
     estimated scf accuracy    <          9.5E-10 Ry
     smearing contrib. (-TS)   =       0.00298287 Ry
     internal energy E=F+TS    =   -1463.19197466 Ry

     The total energy is F=E-TS. E is the sum of the following terms:
     one-electron contribution =   -1679.57143937 Ry
     hartree contribution      =     868.64738182 Ry
     xc contribution           =     -98.59871235 Ry
     ewald contribution        =     704.23921501 Ry
     one-center paw contrib.   =   -1257.90841977 Ry

     convergence has been achieved in  17 iterations

     negative rho (up, down):  5.156E-04 0.000E+00

     Forces acting on atoms (cartesian axes, Ry/au):

     atom    1 type  1   force =    -0.00104158    0.00104158   -0.00384958
     atom    2 type  1   force =     0.00028065   -0.00000000   -0.00471676
     atom    3 type  1   force =    -0.00104158   -0.00104158   -0.00384958
     atom    4 type  1   force =     0.00104158    0.00104158   -0.00384958
     atom    5 type  1   force =    -0.00028065    0.00000000   -0.00471676
     atom    6 type  1   force =     0.00104158   -0.00104158   -0.00384958
     atom    7 type  1   force =     0.00000000   -0.00028065   -0.00471676
     atom    8 type  1   force =     0.00000000    0.00000000   -0.00614167
     atom    9 type  1   force =     0.00000000    0.00028065   -0.00471676
     atom   10 type  1   force =     0.00000000    0.00227007    0.00663463
     atom   11 type  1   force =     0.00000000   -0.00227007    0.00663463
     atom   12 type  1   force =     0.00000000    0.00000000    0.00639508
     atom   13 type  1   force =    -0.00260429   -0.00260429    0.00198369
     atom   14 type  1   force =    -0.00260429    0.00260429    0.00198369
     atom   15 type  1   force =     0.00227007    0.00000000    0.00663463
     atom   16 type  1   force =     0.00260429   -0.00260429    0.00198369
     atom   17 type  1   force =     0.00260429    0.00260429    0.00198369
     atom   18 type  1   force =    -0.00227007    0.00000000    0.00663463
     atom   19 type  1   force =     0.00019359   -0.00019359   -0.00007667
     atom   20 type  1   force =     0.00000157    0.00000000   -0.00002066
     atom   21 type  1   force =     0.00019359    0.00019359   -0.00007667
     atom   22 type  1   force =    -0.00019359   -0.00019359   -0.00007667
     atom   23 type  1   force =    -0.00000157   -0.00000000   -0.00002066
     atom   24 type  1   force =    -0.00019359    0.00019359   -0.00007667
     atom   25 type  1   force =    -0.00000000   -0.00000157   -0.00002066
     atom   26 type  1   force =     0.00000000    0.00000000    0.00004824
     atom   27 type  1   force =     0.00000000    0.00000157   -0.00002066
     atom   28 type  1   force =     0.00000000    0.00010699    0.00019535
     atom   29 type  1   force =     0.00000000   -0.00010699    0.00019535
     atom   30 type  1   force =     0.00000000    0.00000000   -0.00028560
     atom   31 type  1   force =    -0.00004613   -0.00004613   -0.00008882
     atom   32 type  1   force =    -0.00004613    0.00004613   -0.00008882
     atom   33 type  1   force =     0.00010699    0.00000000    0.00019535
     atom   34 type  1   force =     0.00004613   -0.00004613   -0.00008882
     atom   35 type  1   force =     0.00004613    0.00004613   -0.00008882
     atom   36 type  1   force =    -0.00010699    0.00000000    0.00019535
     atom   37 type  2   force =     0.00000000    0.00000000   -0.00026077

     Total force =     0.000851     Total SCF correction =     0.000038
     Energy error            =      6.4E-05 Ry
     Gradient error          =      2.9E-04 Ry/Bohr

     bfgs converged in  10 scf cycles and   9 bfgs steps
     (criteria: energy <  1.0E-04 Ry, force <  1.0E-03 Ry/Bohr)

     End of BFGS Geometry Optimization

     Final energy             =   -1463.1889917936 Ry

     File ./tmp/Al.bfgs deleted, as requested
Begin final coordinates

ATOMIC_POSITIONS (alat)
Al               0.0000000000        0.0000000000        0.0000000000    0   0   0
Al               0.0000000000        0.9999999969        0.0000000000    0   0   0
Al               0.0000000000        1.9999999938        0.0000000000    0   0   0
Al               0.9999999969        0.0000000000        0.0000000000    0   0   0
Al               0.9999999969        0.9999999969        0.0000000000    0   0   0
Al               0.9999999969        1.9999999938        0.0000000000    0   0   0
Al               1.9999999938        0.0000000000        0.0000000000    0   0   0
Al               1.9999999938        0.9999999969        0.0000000000    0   0   0
Al               1.9999999938        1.9999999938        0.0000000000    0   0   0
Al               0.4999999984        0.4999999984        0.7071067668    0   0   0
Al               0.4999999984        1.4999999955        0.7071067668    0   0   0
Al               0.4999999984        2.4999999922        0.7071067668    0   0   0
Al               1.4999999955        0.4999999984        0.7071067668    0   0   0
Al               1.4999999955        1.4999999955        0.7071067668    0   0   0
Al               1.4999999955        2.4999999922        0.7071067668    0   0   0
Al               2.4999999922        0.4999999984        0.7071067668    0   0   0
Al               2.4999999922        1.4999999955        0.7071067668    0   0   0
Al               2.4999999922        2.4999999922        0.7071067668    0   0   0
Al               0.0000994593       -0.0000994593        1.4254817586
Al              -0.0068893666        0.9999999969        1.4529023311
Al               0.0000994593        2.0000994532        1.4254781629
Al               0.9999005376       -0.0000994593        1.4254781629
Al               1.0068893636        0.9999999969        1.4529013724
Al               0.9999005376        2.0000994532        1.4254772042
Al               1.9999999938        0.0068893666        1.4529023311
Al               1.9999999938        0.9999999969        1.3851891229
Al               1.9999999938        1.9931106272        1.4529013724
Al               0.4999999984        0.4983177433        2.1662201593
Al               0.4999999984        1.5016822506        2.1662189713
Al               0.4999999984        2.4999999922        2.1512226071
Al               1.5145993730        0.5145993761        2.1644756918
Al               1.5145993730        1.4854006178        2.1644779493
Al               1.4983177402        2.4999999922        2.1662189713
Al               2.4854006147        0.5145993761        2.1644768798
Al               2.4854006147        1.4854006178        2.1644756918
Al               2.5016822475        2.4999999922        2.1662201593
O                1.9999999985        0.9999999993        2.4126302520    0   0   1
End final coordinates



     Writing all to output data dir ./tmp/Al.save/ :
     XML data file, charge density, pseudopotentials, collected wavefunctions

     init_run     :      8.64s CPU      9.64s WALL (       1 calls)
     electrons    :   1696.10s CPU   1789.08s WALL (      10 calls)
     update_pot   :     16.85s CPU     18.30s WALL (       9 calls)
     forces       :     65.05s CPU     70.44s WALL (      10 calls)

     Called by init_run:
     wfcinit      :      5.24s CPU      5.57s WALL (       1 calls)
     potinit      :      1.69s CPU      2.02s WALL (       1 calls)
     hinit0       :      0.57s CPU      0.66s WALL (       1 calls)

     Called by electrons:
     c_bands      :    985.41s CPU   1012.50s WALL (     115 calls)
     sum_band     :    265.85s CPU    291.89s WALL (     115 calls)
     v_of_rho     :    116.37s CPU    128.02s WALL (     117 calls)
     newd         :     68.48s CPU     87.28s WALL (     117 calls)
     PAW_pot      :     66.50s CPU     66.57s WALL (     126 calls)
     mix_rho      :    203.83s CPU    214.18s WALL (     115 calls)

     Called by c_bands:
     init_us_2    :     43.12s CPU     44.26s WALL (     240 calls)
     cegterg      :    891.55s CPU    914.81s WALL (     115 calls)

     Called by *egterg:
     cdiaghg      :      3.04s CPU      3.06s WALL (     593 calls)
     h_psi        :    683.80s CPU    702.92s WALL (     611 calls)
     s_psi        :    106.35s CPU    106.56s WALL (     611 calls)
     g_psi        :      1.78s CPU      1.80s WALL (     495 calls)

     Called by h_psi:
     h_psi:calbec :     98.11s CPU     98.91s WALL (     611 calls)
     vloc_psi     :    477.19s CPU    492.79s WALL (     611 calls)
     add_vuspsi   :    105.95s CPU    106.14s WALL (     611 calls)

     General routines
     calbec       :    140.55s CPU    141.81s WALL (     775 calls)
     fft          :     73.97s CPU     82.44s WALL (    1628 calls)
     ffts         :     92.42s CPU     99.48s WALL (   12163 calls)
     fftw         :    388.81s CPU    404.23s WALL (   54698 calls)
     interpolate  :      8.62s CPU      9.10s WALL (     117 calls)

     Parallel routines

     PWSCF        :  30m 2.72s CPU  31m46.90s WALL


   This run was terminated on:  22:55:33  19May2025            

=------------------------------------------------------------------------------=
   JOB DONE.
=------------------------------------------------------------------------------=
