No protocol specified

     Program PWSCF v.7.3.1 starts on 19May2025 at 23:16: 3 

     This program is part of the open-source Quantum ESPRESSO suite
     for quantum simulation of materials; please cite
         "P. Giannozzi et al., J. Phys.:Condens. Matter 21 395502 (2009);
         "P. Giannozzi et al., J. Phys.:Condens. Matter 29 465901 (2017);
         "P. Giannozzi et al., J. Chem. Phys. 152 154105 (2020);
          URL http://www.quantum-espresso.org", 
     in publications or presentations arising from this work. More details at
     http://www.quantum-espresso.org/quote

     Parallel version (MPI), running on     6 processors

     MPI processes distributed on     1 nodes
     21794 MiB available memory on the printing compute node when the environment starts

     Waiting for input...
     Reading input from standard input

     Current dimensions of program PWSCF are:
     Max number of different atomic species (ntypx) = 10
     Max number of k-points (npk) =  40000
     Max angular momentum in pseudopotentials (lmaxx) =  4
     Message from routine input:
     WARNING: "startingwfc" set to atomic may spoil restart
     file Al.pbe-n-kjpaw_psl.1.0.0.UPF: wavefunction(s)  3S 3P renormalized
     file O.pbe-n-kjpaw_psl.0.1.UPF: wavefunction(s)  2P renormalized
     Message from routine setup:
     using ibrav=0 with symmetry is DISCOURAGED, use correct ibrav instead

     R & G space division:  proc/nbgrp/npool/nimage =       6
     Subspace diagonalization in iterative solution of the eigenvalue problem:
     a serial algorithm will be used


     Parallelization info
     --------------------
     sticks:   dense  smooth     PW     G-vecs:    dense   smooth      PW
     Min        1110     556    145               182022    64391    8583
     Max        1111     557    151               182027    64393    8585
     Sum        6665    3341    877              1092149   386353   51501

     Using Slab Decomposition



     bravais-lattice index     =            0
     lattice parameter (alat)  =       5.3944  a.u.
     unit-cell volume          =   11302.2493 (a.u.)^3
     number of atoms/cell      =           37
     number of atomic types    =            2
     number of electrons       =       114.00
     number of Kohn-Sham states=           68
     kinetic-energy cutoff     =      40.0000  Ry
     charge density cutoff     =     320.0000  Ry
     scf convergence threshold =      1.0E-07
     mixing beta               =       0.5000
     number of iterations used =            8  local-TF  mixing
     energy convergence thresh.=      1.0E-04
     force convergence thresh. =      1.0E-03
     Exchange-correlation= SLA  PW   PBX  PBC
                           (   1   4   3   4   0   0   0)
     nstep                     =           50


     celldm(1)=   5.394412  celldm(2)=   0.000000  celldm(3)=   0.000000
     celldm(4)=   0.000000  celldm(5)=   0.000000  celldm(6)=   0.000000

     crystal axes: (cart. coord. in units of alat)
               a(1) = (   3.000000   0.000000   0.000000 )  
               a(2) = (   0.000000   3.000000   0.000000 )  
               a(3) = (   0.000000   0.000000   8.000000 )  

     reciprocal axes: (cart. coord. in units 2 pi/alat)
               b(1) = (  0.333333  0.000000  0.000000 )  
               b(2) = (  0.000000  0.333333  0.000000 )  
               b(3) = (  0.000000  0.000000  0.125000 )  


     PseudoPot. # 1 for Al read from file:
     ../../Pseudo/Al.pbe-n-kjpaw_psl.1.0.0.UPF
     MD5 check sum: dd5adf945272da8132fc805c9e56c2d6
     Pseudo is Projector augmented-wave + core cor, Zval =  3.0
     Generated using "atomic" code by A. Dal Corso  v.5.1
     Shape of augmentation charge: PSQ
     Using radial grid of 1135 points,  6 beta functions with: 
                l(1) =   0
                l(2) =   0
                l(3) =   1
                l(4) =   1
                l(5) =   2
                l(6) =   2
     Q(r) pseudized with 0 coefficients 


     PseudoPot. # 2 for O  read from file:
     ../../Pseudo/O.pbe-n-kjpaw_psl.0.1.UPF
     MD5 check sum: 0234752ac141de4415c5fc33072bef88
     Pseudo is Projector augmented-wave + core cor, Zval =  6.0
     Generated using "atomic" code by A. Dal Corso  v.5.0.99 svn rev. 10869
     Shape of augmentation charge: BESSEL
     Using radial grid of 1095 points,  4 beta functions with: 
                l(1) =   0
                l(2) =   0
                l(3) =   1
                l(4) =   1
     Q(r) pseudized with 0 coefficients 


     atomic species   valence    mass     pseudopotential
     Al                3.00     1.00000     Al( 1.00)
     O                 6.00     1.00000     O ( 1.00)

      8 Sym. Ops. (no inversion) found ( 6 have fractional translation)



   Cartesian axes

     site n.     atom                  positions (alat units)
         1        Al     tau(   1) = (   0.0000000   0.0000000   0.0000000  )
         2        Al     tau(   2) = (   0.0000000   1.0000000   0.0000000  )
         3        Al     tau(   3) = (   0.0000000   2.0000000   0.0000000  )
         4        Al     tau(   4) = (   1.0000000   0.0000000   0.0000000  )
         5        Al     tau(   5) = (   1.0000000   1.0000000   0.0000000  )
         6        Al     tau(   6) = (   1.0000000   2.0000000   0.0000000  )
         7        Al     tau(   7) = (   2.0000000   0.0000000   0.0000000  )
         8        Al     tau(   8) = (   2.0000000   1.0000000   0.0000000  )
         9        Al     tau(   9) = (   2.0000000   2.0000000   0.0000000  )
        10        Al     tau(  10) = (   0.5000000   0.5000000   0.7071068  )
        11        Al     tau(  11) = (   0.5000000   1.5000000   0.7071068  )
        12        Al     tau(  12) = (   0.5000000   2.5000000   0.7071068  )
        13        Al     tau(  13) = (   1.5000000   0.5000000   0.7071068  )
        14        Al     tau(  14) = (   1.5000000   1.5000000   0.7071068  )
        15        Al     tau(  15) = (   1.5000000   2.5000000   0.7071068  )
        16        Al     tau(  16) = (   2.5000000   0.5000000   0.7071068  )
        17        Al     tau(  17) = (   2.5000000   1.5000000   0.7071068  )
        18        Al     tau(  18) = (   2.5000000   2.5000000   0.7071068  )
        19        Al     tau(  19) = (   0.0000995  -0.0000995   1.4254818  )
        20        Al     tau(  20) = (  -0.0068894   1.0000000   1.4529023  )
        21        Al     tau(  21) = (   0.0000995   2.0000995   1.4254782  )
        22        Al     tau(  22) = (   0.9999005  -0.0000995   1.4254782  )
        23        Al     tau(  23) = (   1.0068894   1.0000000   1.4529014  )
        24        Al     tau(  24) = (   0.9999005   2.0000995   1.4254772  )
        25        Al     tau(  25) = (   2.0000000   0.0068894   1.4529023  )
        26        Al     tau(  26) = (   2.0000000   1.0000000   1.3851891  )
        27        Al     tau(  27) = (   2.0000000   1.9931106   1.4529014  )
        28        Al     tau(  28) = (   0.5000000   0.4983177   2.1662202  )
        29        Al     tau(  29) = (   0.5000000   1.5016823   2.1662190  )
        30        Al     tau(  30) = (   0.5000000   2.5000000   2.1512226  )
        31        Al     tau(  31) = (   1.5145994   0.5145994   2.1644757  )
        32        Al     tau(  32) = (   1.5145994   1.4854006   2.1644779  )
        33        Al     tau(  33) = (   1.4983177   2.5000000   2.1662190  )
        34        Al     tau(  34) = (   2.4854006   0.5145994   2.1644769  )
        35        Al     tau(  35) = (   2.4854006   1.4854006   2.1644757  )
        36        Al     tau(  36) = (   2.5016822   2.5000000   2.1662202  )
        37        O      tau(  37) = (   2.0000000   1.0000000   2.4126303  )

     number of k points=     1  Marzari-Vanderbilt smearing, width (Ry)=  0.0500
                       cart. coord. in units 2pi/alat
        k(    1) = (   0.0833333   0.0833333   0.0000000), wk =   2.0000000

     Dense  grid:  1092149 G-vectors     FFT dimensions: (  96,  96, 250)

     Smooth grid:   386353 G-vectors     FFT dimensions: (  72,  72, 180)

     Estimated max dynamical RAM per process >    1011.25 MB

     Estimated total dynamical RAM >       5.93 GB

     Atomic positions and unit cell read from directory:
     ./tmp/Al.save/


     The initial density is read from file :
     ./tmp/Al.save/charge-density


     negative rho (up, down):  5.157E-04 0.000E+00
     Starting wfcs are  148 atomic wfcs
     Checking if some PAW data can be deallocated... 

     total cpu time spent up to now is        4.9 secs

     Self-consistent Calculation

     iteration #  1     ecut=    40.00 Ry     beta= 0.50
     Davidson diagonalization with overlap
     c_bands:  1 eigenvalues not converged
     ethr =  1.00E-05,  avg # of iterations = 20.0

     negative rho (up, down):  5.153E-04 0.000E+00

     total cpu time spent up to now is       19.3 secs

     total energy              =   -1463.12156153 Ry
     estimated scf accuracy    <       0.01745005 Ry

     iteration #  2     ecut=    40.00 Ry     beta= 0.50
     Davidson diagonalization with overlap
     ethr =  1.53E-05,  avg # of iterations =  1.0

     negative rho (up, down):  4.943E-04 0.000E+00

     total cpu time spent up to now is       26.4 secs

     total energy              =   -1463.11996233 Ry
     estimated scf accuracy    <       0.00611569 Ry

     iteration #  3     ecut=    40.00 Ry     beta= 0.50
     Davidson diagonalization with overlap
     ethr =  5.36E-06,  avg # of iterations =  4.0

     negative rho (up, down):  5.056E-04 0.000E+00

     total cpu time spent up to now is       34.0 secs

     total energy              =   -1463.12118170 Ry
     estimated scf accuracy    <       0.00019708 Ry

     iteration #  4     ecut=    40.00 Ry     beta= 0.50
     Davidson diagonalization with overlap
     ethr =  1.73E-07,  avg # of iterations = 11.0

     negative rho (up, down):  5.137E-04 0.000E+00

     total cpu time spent up to now is       43.0 secs

     total energy              =   -1463.12127816 Ry
     estimated scf accuracy    <       0.00021865 Ry

     iteration #  5     ecut=    40.00 Ry     beta= 0.50
     Davidson diagonalization with overlap
     ethr =  1.73E-07,  avg # of iterations =  1.0

     negative rho (up, down):  5.294E-04 0.000E+00

     total cpu time spent up to now is       50.0 secs

     total energy              =   -1463.12126584 Ry
     estimated scf accuracy    <       0.00007223 Ry

     iteration #  6     ecut=    40.00 Ry     beta= 0.50
     Davidson diagonalization with overlap
     ethr =  6.34E-08,  avg # of iterations =  5.0

     negative rho (up, down):  5.321E-04 0.000E+00

     total cpu time spent up to now is       57.7 secs

     total energy              =   -1463.12128051 Ry
     estimated scf accuracy    <       0.00001559 Ry

     iteration #  7     ecut=    40.00 Ry     beta= 0.50
     Davidson diagonalization with overlap
     ethr =  1.37E-08,  avg # of iterations =  4.0

     negative rho (up, down):  5.290E-04 0.000E+00

     total cpu time spent up to now is       64.9 secs

     total energy              =   -1463.12127841 Ry
     estimated scf accuracy    <       0.00001237 Ry

     iteration #  8     ecut=    40.00 Ry     beta= 0.50
     Davidson diagonalization with overlap
     ethr =  1.08E-08,  avg # of iterations =  5.0

     negative rho (up, down):  5.230E-04 0.000E+00

     total cpu time spent up to now is       72.0 secs

     total energy              =   -1463.12128039 Ry
     estimated scf accuracy    <       0.00000045 Ry

     iteration #  9     ecut=    40.00 Ry     beta= 0.50
     Davidson diagonalization with overlap
     c_bands:  1 eigenvalues not converged
     ethr =  3.98E-10,  avg # of iterations = 20.0

     negative rho (up, down):  5.218E-04 0.000E+00

     total cpu time spent up to now is       82.0 secs

     total energy              =   -1463.12128385 Ry
     estimated scf accuracy    <       0.00000300 Ry

     iteration # 10     ecut=    40.00 Ry     beta= 0.50
     Davidson diagonalization with overlap
     ethr =  3.98E-10,  avg # of iterations =  9.0

     negative rho (up, down):  5.169E-04 0.000E+00

     total cpu time spent up to now is       89.5 secs

     total energy              =   -1463.12128374 Ry
     estimated scf accuracy    <       0.00000105 Ry

     iteration # 11     ecut=    40.00 Ry     beta= 0.50
     Davidson diagonalization with overlap
     ethr =  3.98E-10,  avg # of iterations =  4.0

     negative rho (up, down):  5.188E-04 0.000E+00

     total cpu time spent up to now is       96.5 secs

     End of self-consistent calculation

          k = 0.0833 0.0833 0.0000 ( 48259 PWs)   bands (ev):

   -19.5154 -10.1254  -9.1559  -9.1240  -8.8421  -8.1681  -8.0007  -7.8711
    -7.3577  -7.1777  -7.0453  -6.7883  -6.6700  -6.4684  -6.1629  -6.0960
    -5.8682  -5.7789  -5.5142  -5.4526  -5.0544  -4.6905  -4.6334  -4.3613
    -4.2088  -4.2019  -3.9614  -3.8772  -3.6971  -3.4049  -3.2699  -3.2574
    -3.0173  -2.9338  -2.9245  -2.9027  -2.8085  -2.5051  -2.3161  -2.0628
    -2.0160  -1.9210  -1.6339  -1.5504  -1.0945  -1.0619  -0.8030  -0.7880
    -0.7774  -0.6512  -0.6259  -0.5497  -0.4432  -0.4364  -0.3196  -0.1394
    -0.0655   0.0337   0.2058   0.2385   0.5391   0.7274   0.7951   0.9808
     1.0043   1.0991   1.1797   1.3839

     the Fermi energy is     0.0262 ev

!    total energy              =   -1463.12128390 Ry
     total all-electron energy =    -17633.108313 Ry
     estimated scf accuracy    <       0.00000004 Ry
     smearing contrib. (-TS)   =       0.01033414 Ry
     internal energy E=F+TS    =   -1463.13161804 Ry

     The total energy is F=E-TS. E is the sum of the following terms:
     one-electron contribution =   -1679.43165746 Ry
     hartree contribution      =     868.56753947 Ry
     xc contribution           =     -98.59543453 Ry
     ewald contribution        =     704.23921501 Ry
     one-center paw contrib.   =   -1257.91128054 Ry

     convergence has been achieved in  11 iterations

     negative rho (up, down):  5.188E-04 0.000E+00

     Forces acting on atoms (cartesian axes, Ry/au):

     atom    1 type  1   force =     0.00183355   -0.00183355   -0.00902803
     atom    2 type  1   force =     0.00071681    0.00000000   -0.00815329
     atom    3 type  1   force =     0.00183355    0.00183355   -0.00902803
     atom    4 type  1   force =    -0.00183355   -0.00183355   -0.00902803
     atom    5 type  1   force =    -0.00071681    0.00000000   -0.00815329
     atom    6 type  1   force =    -0.00183355    0.00183355   -0.00902803
     atom    7 type  1   force =     0.00000000   -0.00071681   -0.00815329
     atom    8 type  1   force =     0.00000000    0.00000000   -0.00774864
     atom    9 type  1   force =     0.00000000    0.00071681   -0.00815329
     atom   10 type  1   force =     0.00000000    0.00052962    0.01762607
     atom   11 type  1   force =     0.00000000   -0.00052962    0.01762607
     atom   12 type  1   force =     0.00000000    0.00000000    0.01891192
     atom   13 type  1   force =    -0.00280769   -0.00280769    0.01379040
     atom   14 type  1   force =    -0.00280769    0.00280769    0.01379040
     atom   15 type  1   force =     0.00052962    0.00000000    0.01762607
     atom   16 type  1   force =     0.00280769   -0.00280769    0.01379040
     atom   17 type  1   force =     0.00280769    0.00280769    0.01379040
     atom   18 type  1   force =    -0.00052962    0.00000000    0.01762607
     atom   19 type  1   force =     0.00181079   -0.00181079   -0.01374136
     atom   20 type  1   force =    -0.00162406    0.00000000   -0.01095954
     atom   21 type  1   force =     0.00181079    0.00181079   -0.01374136
     atom   22 type  1   force =    -0.00181079   -0.00181079   -0.01374136
     atom   23 type  1   force =     0.00162406    0.00000000   -0.01095954
     atom   24 type  1   force =    -0.00181079    0.00181079   -0.01374136
     atom   25 type  1   force =     0.00000000    0.00162406   -0.01095954
     atom   26 type  1   force =     0.00000000    0.00000000   -0.01508859
     atom   27 type  1   force =     0.00000000   -0.00162406   -0.01095954
     atom   28 type  1   force =     0.00000000   -0.00041153    0.00710709
     atom   29 type  1   force =    -0.00000000    0.00041153    0.00710709
     atom   30 type  1   force =     0.00000000    0.00000000    0.00590935
     atom   31 type  1   force =    -0.00256232   -0.00256232    0.00391892
     atom   32 type  1   force =    -0.00256232    0.00256232    0.00391892
     atom   33 type  1   force =    -0.00041153   -0.00000000    0.00710709
     atom   34 type  1   force =     0.00256232   -0.00256232    0.00391892
     atom   35 type  1   force =     0.00256232    0.00256232    0.00391892
     atom   36 type  1   force =     0.00041153    0.00000000    0.00710709
     atom   37 type  2   force =     0.00000000    0.00000000   -0.00422503

     Total force =     0.043239     Total SCF correction =     0.000230

     BFGS Geometry Optimization
     Energy error            =      0.0E+00 Ry
     Gradient error          =      1.5E-02 Ry/Bohr

     number of scf cycles    =   1
     number of bfgs steps    =   0

     energy             new  =   -1463.1212839015 Ry

     new trust radius        =       0.0150885895 bohr
     new conv_thr            =       0.0000001000 Ry


ATOMIC_POSITIONS (alat)
Al               0.0000000000        0.0000000000        0.0000000000    0   0   0
Al               0.0000000000        0.9999999969        0.0000000000    0   0   0
Al               0.0000000000        1.9999999938        0.0000000000    0   0   0
Al               0.9999999969        0.0000000000        0.0000000000    0   0   0
Al               0.9999999969        0.9999999969        0.0000000000    0   0   0
Al               0.9999999969        1.9999999938        0.0000000000    0   0   0
Al               1.9999999938        0.0000000000        0.0000000000    0   0   0
Al               1.9999999938        0.9999999969        0.0000000000    0   0   0
Al               1.9999999938        1.9999999938        0.0000000000    0   0   0
Al               0.4999999984        0.4999999984        0.7071067668    0   0   0
Al               0.4999999984        1.4999999955        0.7071067668    0   0   0
Al               0.4999999984        2.4999999922        0.7071067668    0   0   0
Al               1.4999999955        0.4999999984        0.7071067668    0   0   0
Al               1.4999999955        1.4999999955        0.7071067668    0   0   0
Al               1.4999999955        2.4999999922        0.7071067668    0   0   0
Al               2.4999999922        0.4999999984        0.7071067668    0   0   0
Al               2.4999999922        1.4999999955        0.7071067668    0   0   0
Al               2.4999999922        2.4999999922        0.7071067668    0   0   0
Al               0.0004351385       -0.0004351385        1.4229344257
Al              -0.0071904294        0.9999999969        1.4508706837
Al               0.0004351385        2.0004351324        1.4229308300
Al               0.9995648584       -0.0004351385        1.4229308300
Al               1.0071904264        0.9999999969        1.4508697250
Al               0.9995648584        2.0004351324        1.4229298713
Al               1.9999999938        0.0071904294        1.4508706837
Al               1.9999999938        0.9999999969        1.3823920453
Al               1.9999999938        1.9928095644        1.4508697250
Al               0.4999999984        0.4982414554        2.1675376500
Al               0.4999999984        1.5017585385        2.1675364620
Al               0.4999999984        2.4999999922        2.1523180639
Al               1.5141243774        0.5141243805        2.1652021695
Al               1.5141243774        1.4858756134        2.1652044270
Al               1.4982414523        2.4999999922        2.1675364620
Al               2.4858756103        0.5141243805        2.1652033575
Al               2.4858756103        1.4858756134        2.1652021695
Al               2.5017585354        2.4999999922        2.1675376500
O                1.9999999985        0.9999999993        2.4118470277    0   0   1



     Writing config-only to output data dir ./tmp/Al.save/ :
     XML data file
     NEW-OLD atomic charge density approx. for the potential

     negative rho (up, down):  5.177E-04 0.000E+00

     total cpu time spent up to now is      104.2 secs

     Self-consistent Calculation

     iteration #  1     ecut=    40.00 Ry     beta= 0.50
     Davidson diagonalization with overlap
     ethr =  1.00E-06,  avg # of iterations =  3.0

     negative rho (up, down):  4.868E-04 0.000E+00

     total cpu time spent up to now is      112.1 secs

     total energy              =   -1463.12303633 Ry
     estimated scf accuracy    <       0.00037681 Ry

     iteration #  2     ecut=    40.00 Ry     beta= 0.50
     Davidson diagonalization with overlap
     ethr =  3.31E-07,  avg # of iterations =  2.0

     negative rho (up, down):  4.512E-04 0.000E+00

     total cpu time spent up to now is      119.2 secs

     total energy              =   -1463.12303227 Ry
     estimated scf accuracy    <       0.00013798 Ry

     iteration #  3     ecut=    40.00 Ry     beta= 0.50
     Davidson diagonalization with overlap
     ethr =  1.21E-07,  avg # of iterations =  7.0

     negative rho (up, down):  4.630E-04 0.000E+00

     total cpu time spent up to now is      126.6 secs

     total energy              =   -1463.12304680 Ry
     estimated scf accuracy    <       0.00000714 Ry

     iteration #  4     ecut=    40.00 Ry     beta= 0.50
     Davidson diagonalization with overlap
     ethr =  6.26E-09,  avg # of iterations = 10.0

     negative rho (up, down):  4.844E-04 0.000E+00

     total cpu time spent up to now is      135.3 secs

     total energy              =   -1463.12304944 Ry
     estimated scf accuracy    <       0.00000507 Ry

     iteration #  5     ecut=    40.00 Ry     beta= 0.50
     Davidson diagonalization with overlap
     ethr =  4.45E-09,  avg # of iterations =  2.0

     negative rho (up, down):  4.886E-04 0.000E+00

     total cpu time spent up to now is      142.3 secs

     total energy              =   -1463.12304928 Ry
     estimated scf accuracy    <       0.00000360 Ry

     iteration #  6     ecut=    40.00 Ry     beta= 0.50
     Davidson diagonalization with overlap
     ethr =  3.16E-09,  avg # of iterations =  2.0

     negative rho (up, down):  5.035E-04 0.000E+00

     total cpu time spent up to now is      149.2 secs

     total energy              =   -1463.12304969 Ry
     estimated scf accuracy    <       0.00000087 Ry

     iteration #  7     ecut=    40.00 Ry     beta= 0.50
     Davidson diagonalization with overlap
     ethr =  7.65E-10,  avg # of iterations =  2.0

     negative rho (up, down):  5.080E-04 0.000E+00

     total cpu time spent up to now is      156.1 secs

     total energy              =   -1463.12304970 Ry
     estimated scf accuracy    <       0.00000049 Ry

     iteration #  8     ecut=    40.00 Ry     beta= 0.50
     Davidson diagonalization with overlap
     ethr =  4.29E-10,  avg # of iterations =  2.0

     negative rho (up, down):  5.162E-04 0.000E+00

     total cpu time spent up to now is      163.1 secs

     total energy              =   -1463.12304968 Ry
     estimated scf accuracy    <       0.00000036 Ry

     iteration #  9     ecut=    40.00 Ry     beta= 0.50
     Davidson diagonalization with overlap
     ethr =  3.14E-10,  avg # of iterations =  2.0

     negative rho (up, down):  5.185E-04 0.000E+00

     total cpu time spent up to now is      169.1 secs

     End of self-consistent calculation

          k = 0.0833 0.0833 0.0000 ( 48259 PWs)   bands (ev):

   -19.5105 -10.1256  -9.1571  -9.1222  -8.8283  -8.1671  -7.9891  -7.8579
    -7.3536  -7.1738  -7.0413  -6.7856  -6.6694  -6.4633  -6.1621  -6.0969
    -5.8594  -5.7731  -5.5111  -5.4500  -5.0429  -4.6786  -4.6337  -4.3568
    -4.2098  -4.2026  -3.9625  -3.8766  -3.6996  -3.4031  -3.2713  -3.2560
    -3.0076  -2.9348  -2.9196  -2.8969  -2.8020  -2.5014  -2.3100  -2.0493
    -2.0117  -1.9214  -1.6290  -1.5511  -1.0958  -1.0652  -0.8037  -0.7896
    -0.7690  -0.6511  -0.6217  -0.5493  -0.4435  -0.4367  -0.3197  -0.1390
    -0.0668   0.0306   0.2056   0.2378   0.5459   0.7410   0.8053   0.9912
     1.0106   1.1042   1.1815   1.3838

     the Fermi energy is     0.0266 ev

!    total energy              =   -1463.12304966 Ry
     total all-electron energy =    -17633.110079 Ry
     estimated scf accuracy    <       0.00000005 Ry
     smearing contrib. (-TS)   =       0.01067248 Ry
     internal energy E=F+TS    =   -1463.13372214 Ry

     The total energy is F=E-TS. E is the sum of the following terms:
     one-electron contribution =   -1679.26844964 Ry
     hartree contribution      =     868.49017774 Ry
     xc contribution           =     -98.59002106 Ry
     ewald contribution        =     704.14532442 Ry
     one-center paw contrib.   =   -1257.91075360 Ry

     convergence has been achieved in   9 iterations

     negative rho (up, down):  5.185E-04 0.000E+00

     Forces acting on atoms (cartesian axes, Ry/au):

     atom    1 type  1   force =     0.00184624   -0.00184624   -0.00886174
     atom    2 type  1   force =     0.00075154    0.00000000   -0.00796825
     atom    3 type  1   force =     0.00184624    0.00184624   -0.00886174
     atom    4 type  1   force =    -0.00184624   -0.00184624   -0.00886174
     atom    5 type  1   force =    -0.00075154    0.00000000   -0.00796825
     atom    6 type  1   force =    -0.00184624    0.00184624   -0.00886174
     atom    7 type  1   force =     0.00000000   -0.00075154   -0.00796825
     atom    8 type  1   force =     0.00000000    0.00000000   -0.00757686
     atom    9 type  1   force =     0.00000000    0.00075154   -0.00796825
     atom   10 type  1   force =     0.00000000    0.00065737    0.01698157
     atom   11 type  1   force =    -0.00000000   -0.00065737    0.01698157
     atom   12 type  1   force =     0.00000000    0.00000000    0.01792551
     atom   13 type  1   force =    -0.00293155   -0.00293155    0.01300700
     atom   14 type  1   force =    -0.00293155    0.00293155    0.01300700
     atom   15 type  1   force =     0.00065737   -0.00000000    0.01698157
     atom   16 type  1   force =     0.00293155   -0.00293155    0.01300700
     atom   17 type  1   force =     0.00293155    0.00293155    0.01300700
     atom   18 type  1   force =    -0.00065737    0.00000000    0.01698157
     atom   19 type  1   force =     0.00169692   -0.00169692   -0.01234282
     atom   20 type  1   force =    -0.00133512    0.00000000   -0.00984242
     atom   21 type  1   force =     0.00169692    0.00169692   -0.01234282
     atom   22 type  1   force =    -0.00169692   -0.00169692   -0.01234282
     atom   23 type  1   force =     0.00133512    0.00000000   -0.00984242
     atom   24 type  1   force =    -0.00169692    0.00169692   -0.01234282
     atom   25 type  1   force =     0.00000000    0.00133512   -0.00984242
     atom   26 type  1   force =     0.00000000    0.00000000   -0.01313654
     atom   27 type  1   force =     0.00000000   -0.00133512   -0.00984242
     atom   28 type  1   force =     0.00000000   -0.00037485    0.00622110
     atom   29 type  1   force =     0.00000000    0.00037485    0.00622110
     atom   30 type  1   force =     0.00000000    0.00000000    0.00502219
     atom   31 type  1   force =    -0.00231066   -0.00231066    0.00326781
     atom   32 type  1   force =    -0.00231066    0.00231066    0.00326781
     atom   33 type  1   force =    -0.00037485    0.00000000    0.00622110
     atom   34 type  1   force =     0.00231066   -0.00231066    0.00326781
     atom   35 type  1   force =     0.00231066    0.00231066    0.00326781
     atom   36 type  1   force =     0.00037485    0.00000000    0.00622110
     atom   37 type  2   force =     0.00000000    0.00000000   -0.00408329

     Total force =     0.038501     Total SCF correction =     0.000213
     Energy error            =      1.8E-03 Ry
     Gradient error          =      1.3E-02 Ry/Bohr

     number of scf cycles    =   2
     number of bfgs steps    =   1

     energy             old  =   -1463.1212839015 Ry
     energy             new  =   -1463.1230496601 Ry

     CASE: energy            _new < energy            _old


     WARNING: bfgs curvature condition failed, Theta= 0.899
     new trust radius        =       0.0165974485 bohr
     new conv_thr            =       0.0000000131 Ry


ATOMIC_POSITIONS (alat)
Al               0.0000000000        0.0000000000        0.0000000000    0   0   0
Al               0.0000000000        0.9999999969        0.0000000000    0   0   0
Al               0.0000000000        1.9999999938        0.0000000000    0   0   0
Al               0.9999999969        0.0000000000        0.0000000000    0   0   0
Al               0.9999999969        0.9999999969        0.0000000000    0   0   0
Al               0.9999999969        1.9999999938        0.0000000000    0   0   0
Al               1.9999999938        0.0000000000        0.0000000000    0   0   0
Al               1.9999999938        0.9999999969        0.0000000000    0   0   0
Al               1.9999999938        1.9999999938        0.0000000000    0   0   0
Al               0.4999999984        0.4999999984        0.7071067668    0   0   0
Al               0.4999999984        1.4999999955        0.7071067668    0   0   0
Al               0.4999999984        2.4999999922        0.7071067668    0   0   0
Al               1.4999999955        0.4999999984        0.7071067668    0   0   0
Al               1.4999999955        1.4999999955        0.7071067668    0   0   0
Al               1.4999999955        2.4999999922        0.7071067668    0   0   0
Al               2.4999999922        0.4999999984        0.7071067668    0   0   0
Al               2.4999999922        1.4999999955        0.7071067668    0   0   0
Al               2.4999999922        2.4999999922        0.7071067668    0   0   0
Al               0.0008325173       -0.0008325173        1.4200437547
Al              -0.0075031793        0.9999999969        1.4485656009
Al               0.0008325173        2.0008325112        1.4200401590
Al               0.9991674796       -0.0008325173        1.4200401590
Al               1.0075031763        0.9999999969        1.4485646422
Al               0.9991674796        2.0008325112        1.4200392003
Al               1.9999999938        0.0075031793        1.4485656009
Al               1.9999999938        0.9999999969        1.3793152599
Al               1.9999999938        1.9924968145        1.4485646422
Al               0.4999999984        0.4981536697        2.1689947118
Al               0.4999999984        1.5018463242        2.1689935238
Al               0.4999999984        2.4999999922        2.1534944098
Al               1.5135832290        0.5135832321        2.1659676232
Al               1.5135832290        1.4864167618        2.1659698807
Al               1.4981536666        2.4999999922        2.1689935238
Al               2.4864167587        0.5135832321        2.1659688112
Al               2.4864167587        1.4864167618        2.1659676232
Al               2.5018463211        2.4999999922        2.1689947118
O                1.9999999985        0.9999999993        2.4108908842    0   0   1



     Writing config-only to output data dir ./tmp/Al.save/ :
     XML data file
     NEW-OLD atomic charge density approx. for the potential

     negative rho (up, down):  5.174E-04 0.000E+00

     total cpu time spent up to now is      176.8 secs

     Self-consistent Calculation

     iteration #  1     ecut=    40.00 Ry     beta= 0.50
     Davidson diagonalization with overlap
     ethr =  1.00E-06,  avg # of iterations =  5.0

     negative rho (up, down):  4.771E-04 0.000E+00

     total cpu time spent up to now is      185.4 secs

     total energy              =   -1463.12478246 Ry
     estimated scf accuracy    <       0.00062960 Ry

     iteration #  2     ecut=    40.00 Ry     beta= 0.50
     Davidson diagonalization with overlap
     ethr =  5.52E-07,  avg # of iterations =  2.0

     negative rho (up, down):  4.177E-04 0.000E+00

     total cpu time spent up to now is      192.4 secs

     total energy              =   -1463.12476474 Ry
     estimated scf accuracy    <       0.00023700 Ry

     iteration #  3     ecut=    40.00 Ry     beta= 0.50
     Davidson diagonalization with overlap
     ethr =  2.08E-07,  avg # of iterations =  2.0

     negative rho (up, down):  4.305E-04 0.000E+00

     total cpu time spent up to now is      199.5 secs

     total energy              =   -1463.12478544 Ry
     estimated scf accuracy    <       0.00001280 Ry

     iteration #  4     ecut=    40.00 Ry     beta= 0.50
     Davidson diagonalization with overlap
     ethr =  1.12E-08,  avg # of iterations = 11.0

     negative rho (up, down):  4.391E-04 0.000E+00

     total cpu time spent up to now is      207.8 secs

     total energy              =   -1463.12479013 Ry
     estimated scf accuracy    <       0.00000559 Ry

     iteration #  5     ecut=    40.00 Ry     beta= 0.50
     Davidson diagonalization with overlap
     ethr =  4.91E-09,  avg # of iterations =  2.0

     negative rho (up, down):  4.572E-04 0.000E+00

     total cpu time spent up to now is      214.8 secs

     total energy              =   -1463.12478936 Ry
     estimated scf accuracy    <       0.00000436 Ry

     iteration #  6     ecut=    40.00 Ry     beta= 0.50
     Davidson diagonalization with overlap
     ethr =  3.82E-09,  avg # of iterations =  6.0

     negative rho (up, down):  4.810E-04 0.000E+00

     total cpu time spent up to now is      222.3 secs

     total energy              =   -1463.12478984 Ry
     estimated scf accuracy    <       0.00000024 Ry

     iteration #  7     ecut=    40.00 Ry     beta= 0.50
     Davidson diagonalization with overlap
     ethr =  2.11E-10,  avg # of iterations =  6.0

     negative rho (up, down):  4.892E-04 0.000E+00

     total cpu time spent up to now is      231.0 secs

     total energy              =   -1463.12479001 Ry
     estimated scf accuracy    <       0.00000017 Ry

     iteration #  8     ecut=    40.00 Ry     beta= 0.50
     Davidson diagonalization with overlap
     ethr =  1.47E-10,  avg # of iterations =  1.0

     negative rho (up, down):  5.091E-04 0.000E+00

     total cpu time spent up to now is      237.8 secs

     total energy              =   -1463.12478999 Ry
     estimated scf accuracy    <       0.00000010 Ry

     iteration #  9     ecut=    40.00 Ry     beta= 0.50
     Davidson diagonalization with overlap
     ethr =  8.47E-11,  avg # of iterations =  6.0

     negative rho (up, down):  5.109E-04 0.000E+00

     total cpu time spent up to now is      245.3 secs

     total energy              =   -1463.12479001 Ry
     estimated scf accuracy    <       0.00000001 Ry

     iteration # 10     ecut=    40.00 Ry     beta= 0.50
     Davidson diagonalization with overlap
     ethr =  1.25E-11,  avg # of iterations =  7.0

     negative rho (up, down):  5.183E-04 0.000E+00

     total cpu time spent up to now is      251.8 secs

     End of self-consistent calculation

          k = 0.0833 0.0833 0.0000 ( 48259 PWs)   bands (ev):

   -19.5052 -10.1267  -9.1594  -9.1210  -8.8132  -8.1670  -7.9764  -7.8436
    -7.3500  -7.1705  -7.0375  -6.7830  -6.6691  -6.4576  -6.1621  -6.0989
    -5.8499  -5.7672  -5.5079  -5.4473  -5.0305  -4.6656  -4.6342  -4.3526
    -4.2118  -4.2043  -3.9641  -3.8763  -3.7029  -3.4016  -3.2737  -3.2553
    -2.9976  -2.9361  -2.9155  -2.8909  -2.7941  -2.4974  -2.3034  -2.0347
    -2.0075  -1.9226  -1.6238  -1.5521  -1.0975  -1.0692  -0.8049  -0.7918
    -0.7606  -0.6514  -0.6166  -0.5495  -0.4448  -0.4377  -0.3205  -0.1393
    -0.0686   0.0266   0.2050   0.2369   0.5531   0.7558   0.8162   1.0023
     1.0162   1.1107   1.1834   1.3830

     the Fermi energy is     0.0266 ev

!    total energy              =   -1463.12479000 Ry
     total all-electron energy =    -17633.111819 Ry
     estimated scf accuracy    <          8.9E-09 Ry
     smearing contrib. (-TS)   =       0.01104626 Ry
     internal energy E=F+TS    =   -1463.13583626 Ry

     The total energy is F=E-TS. E is the sum of the following terms:
     one-electron contribution =   -1679.13732053 Ry
     hartree contribution      =     868.43534115 Ry
     xc contribution           =     -98.58478999 Ry
     ewald contribution        =     704.06130011 Ry
     one-center paw contrib.   =   -1257.91036700 Ry

     convergence has been achieved in  10 iterations

     negative rho (up, down):  5.183E-04 0.000E+00

     Forces acting on atoms (cartesian axes, Ry/au):

     atom    1 type  1   force =     0.00185805   -0.00185805   -0.00866421
     atom    2 type  1   force =     0.00078912    0.00000000   -0.00775144
     atom    3 type  1   force =     0.00185805    0.00185805   -0.00866421
     atom    4 type  1   force =    -0.00185805   -0.00185805   -0.00866421
     atom    5 type  1   force =    -0.00078912   -0.00000000   -0.00775144
     atom    6 type  1   force =    -0.00185805    0.00185805   -0.00866421
     atom    7 type  1   force =    -0.00000000   -0.00078912   -0.00775144
     atom    8 type  1   force =     0.00000000    0.00000000   -0.00737573
     atom    9 type  1   force =     0.00000000    0.00078912   -0.00775144
     atom   10 type  1   force =     0.00000000    0.00080744    0.01622448
     atom   11 type  1   force =     0.00000000   -0.00080744    0.01622448
     atom   12 type  1   force =     0.00000000    0.00000000    0.01676036
     atom   13 type  1   force =    -0.00307453   -0.00307453    0.01209502
     atom   14 type  1   force =    -0.00307453    0.00307453    0.01209502
     atom   15 type  1   force =     0.00080744    0.00000000    0.01622448
     atom   16 type  1   force =     0.00307453   -0.00307453    0.01209502
     atom   17 type  1   force =     0.00307453    0.00307453    0.01209502
     atom   18 type  1   force =    -0.00080744    0.00000000    0.01622448
     atom   19 type  1   force =     0.00155320   -0.00155320   -0.01073782
     atom   20 type  1   force =    -0.00102419   -0.00000000   -0.00856752
     atom   21 type  1   force =     0.00155320    0.00155320   -0.01073782
     atom   22 type  1   force =    -0.00155320   -0.00155320   -0.01073782
     atom   23 type  1   force =     0.00102419    0.00000000   -0.00856752
     atom   24 type  1   force =    -0.00155320    0.00155320   -0.01073782
     atom   25 type  1   force =    -0.00000000    0.00102419   -0.00856752
     atom   26 type  1   force =     0.00000000    0.00000000   -0.01096438
     atom   27 type  1   force =     0.00000000   -0.00102419   -0.00856752
     atom   28 type  1   force =     0.00000000   -0.00033669    0.00522110
     atom   29 type  1   force =     0.00000000    0.00033669    0.00522110
     atom   30 type  1   force =     0.00000000    0.00000000    0.00402323
     atom   31 type  1   force =    -0.00202131   -0.00202131    0.00254013
     atom   32 type  1   force =    -0.00202131    0.00202131    0.00254013
     atom   33 type  1   force =    -0.00033669    0.00000000    0.00522110
     atom   34 type  1   force =     0.00202131   -0.00202131    0.00254013
     atom   35 type  1   force =     0.00202131    0.00202131    0.00254013
     atom   36 type  1   force =     0.00033669    0.00000000    0.00522110
     atom   37 type  2   force =     0.00000000    0.00000000   -0.00388247

     Total force =     0.033133     Total SCF correction =     0.000124
     Energy error            =      1.7E-03 Ry
     Gradient error          =      1.1E-02 Ry/Bohr

     number of scf cycles    =   3
     number of bfgs steps    =   2

     energy             old  =   -1463.1230496601 Ry
     energy             new  =   -1463.1247900026 Ry

     CASE: energy            _new < energy            _old

     new trust radius        =       0.0248961728 bohr
     new conv_thr            =       0.0000000110 Ry


ATOMIC_POSITIONS (alat)
Al               0.0000000000        0.0000000000        0.0000000000    0   0   0
Al               0.0000000000        0.9999999969        0.0000000000    0   0   0
Al               0.0000000000        1.9999999939        0.0000000000    0   0   0
Al               0.9999999969        0.0000000000        0.0000000000    0   0   0
Al               0.9999999969        0.9999999969        0.0000000000    0   0   0
Al               0.9999999969        1.9999999939        0.0000000000    0   0   0
Al               1.9999999939        0.0000000000        0.0000000000    0   0   0
Al               1.9999999939        0.9999999969        0.0000000000    0   0   0
Al               1.9999999939        1.9999999939        0.0000000000    0   0   0
Al               0.4999999984        0.4999999984        0.7071067668    0   0   0
Al               0.4999999984        1.4999999955        0.7071067668    0   0   0
Al               0.4999999984        2.4999999923        0.7071067668    0   0   0
Al               1.4999999955        0.4999999984        0.7071067668    0   0   0
Al               1.4999999955        1.4999999955        0.7071067668    0   0   0
Al               1.4999999955        2.4999999923        0.7071067668    0   0   0
Al               2.4999999923        0.4999999984        0.7071067668    0   0   0
Al               2.4999999923        1.4999999955        0.7071067668    0   0   0
Al               2.4999999923        2.4999999923        0.7071067668    0   0   0
Al               0.0016085921       -0.0016085921        1.4155609783
Al              -0.0077029112        0.9999999969        1.4449806233
Al               0.0016085921        2.0016085860        1.4155573826
Al               0.9983914049       -0.0016085921        1.4155573826
Al               1.0077029082        0.9999999969        1.4449796646
Al               0.9983914049        2.0016085860        1.4155564239
Al               1.9999999939        0.0077029112        1.4449806233
Al               1.9999999939        0.9999999969        1.3755077483
Al               1.9999999939        1.9922970827        1.4449796646
Al               0.4999999984        0.4979955191        2.1708573332
Al               0.4999999984        1.5020044748        2.1708561452
Al               0.4999999984        2.4999999923        2.1545998835
Al               1.5127209226        0.5127209257        2.1665255623
Al               1.5127209226        1.4872790683        2.1665278198
Al               1.4979955161        2.4999999923        2.1708561452
Al               2.4872790652        0.5127209257        2.1665267503
Al               2.4872790652        1.4872790683        2.1665255623
Al               2.5020044718        2.4999999923        2.1708573332
O                1.9999999986        0.9999999993        2.4087221611    0   0   1



     Writing config-only to output data dir ./tmp/Al.save/ :
     XML data file
     NEW-OLD atomic charge density approx. for the potential

     negative rho (up, down):  5.169E-04 0.000E+00

     total cpu time spent up to now is      259.4 secs

     Self-consistent Calculation

     iteration #  1     ecut=    40.00 Ry     beta= 0.50
     Davidson diagonalization with overlap
     ethr =  1.00E-06,  avg # of iterations =  8.0

     negative rho (up, down):  4.721E-04 0.000E+00

     total cpu time spent up to now is      268.2 secs

     total energy              =   -1463.12689772 Ry
     estimated scf accuracy    <       0.00107100 Ry

     iteration #  2     ecut=    40.00 Ry     beta= 0.50
     Davidson diagonalization with overlap
     ethr =  9.39E-07,  avg # of iterations =  1.0

     negative rho (up, down):  4.100E-04 0.000E+00

     total cpu time spent up to now is      275.0 secs

     total energy              =   -1463.12684913 Ry
     estimated scf accuracy    <       0.00038903 Ry

     iteration #  3     ecut=    40.00 Ry     beta= 0.50
     Davidson diagonalization with overlap
     ethr =  3.41E-07,  avg # of iterations =  2.0

     negative rho (up, down):  4.197E-04 0.000E+00

     total cpu time spent up to now is      281.9 secs

     total energy              =   -1463.12688858 Ry
     estimated scf accuracy    <       0.00002105 Ry

     iteration #  4     ecut=    40.00 Ry     beta= 0.50
     Davidson diagonalization with overlap
     ethr =  1.85E-08,  avg # of iterations =  8.0

     negative rho (up, down):  4.275E-04 0.000E+00

     total cpu time spent up to now is      290.0 secs

     total energy              =   -1463.12689530 Ry
     estimated scf accuracy    <       0.00000394 Ry

     iteration #  5     ecut=    40.00 Ry     beta= 0.50
     Davidson diagonalization with overlap
     ethr =  3.45E-09,  avg # of iterations =  7.0

     negative rho (up, down):  4.507E-04 0.000E+00

     total cpu time spent up to now is      297.4 secs

     total energy              =   -1463.12689475 Ry
     estimated scf accuracy    <       0.00000274 Ry

     iteration #  6     ecut=    40.00 Ry     beta= 0.50
     Davidson diagonalization with overlap
     ethr =  2.41E-09,  avg # of iterations =  6.0

     negative rho (up, down):  4.754E-04 0.000E+00

     total cpu time spent up to now is      305.0 secs

     total energy              =   -1463.12689529 Ry
     estimated scf accuracy    <       0.00000026 Ry

     iteration #  7     ecut=    40.00 Ry     beta= 0.50
     Davidson diagonalization with overlap
     ethr =  2.25E-10,  avg # of iterations = 10.0

     negative rho (up, down):  4.836E-04 0.000E+00

     total cpu time spent up to now is      313.2 secs

     total energy              =   -1463.12689536 Ry
     estimated scf accuracy    <       0.00000010 Ry

     iteration #  8     ecut=    40.00 Ry     beta= 0.50
     Davidson diagonalization with overlap
     ethr =  8.80E-11,  avg # of iterations =  2.0

     negative rho (up, down):  4.938E-04 0.000E+00

     total cpu time spent up to now is      320.4 secs

     total energy              =   -1463.12689536 Ry
     estimated scf accuracy    <       0.00000002 Ry

     iteration #  9     ecut=    40.00 Ry     beta= 0.50
     Davidson diagonalization with overlap
     ethr =  1.44E-11,  avg # of iterations =  7.0

     negative rho (up, down):  5.176E-04 0.000E+00

     total cpu time spent up to now is      327.2 secs

     End of self-consistent calculation

          k = 0.0833 0.0833 0.0000 ( 48259 PWs)   bands (ev):

   -19.4982 -10.1295  -9.1639  -9.1206  -8.7917  -8.1682  -7.9584  -7.8235
    -7.3464  -7.1672  -7.0326  -6.7800  -6.6686  -6.4494  -6.1632  -6.1028
    -5.8360  -5.7590  -5.5027  -5.4433  -5.0135  -4.6469  -4.6345  -4.3475
    -4.2158  -4.2075  -3.9664  -3.8751  -3.7078  -3.3997  -3.2784  -3.2557
    -2.9843  -2.9370  -2.9110  -2.8819  -2.7811  -2.4910  -2.2935  -2.0141
    -2.0012  -1.9253  -1.6158  -1.5527  -1.1000  -1.0744  -0.8058  -0.7945
    -0.7498  -0.6513  -0.6076  -0.5506  -0.4480  -0.4396  -0.3215  -0.1410
    -0.0701   0.0207   0.2047   0.2365   0.5638   0.7769   0.8320   1.0183
     1.0222   1.1216   1.1865   1.3811

     the Fermi energy is     0.0265 ev

!    total energy              =   -1463.12689536 Ry
     total all-electron energy =    -17633.113925 Ry
     estimated scf accuracy    <          5.1E-09 Ry
     smearing contrib. (-TS)   =       0.01164182 Ry
     internal energy E=F+TS    =   -1463.13853718 Ry

     The total energy is F=E-TS. E is the sum of the following terms:
     one-electron contribution =   -1679.38500700 Ry
     hartree contribution      =     868.57262583 Ry
     xc contribution           =     -98.58014417 Ry
     ewald contribution        =     704.16430941 Ry
     one-center paw contrib.   =   -1257.91032125 Ry

     convergence has been achieved in   9 iterations

     negative rho (up, down):  5.176E-04 0.000E+00

     Forces acting on atoms (cartesian axes, Ry/au):

     atom    1 type  1   force =     0.00188742   -0.00188742   -0.00838634
     atom    2 type  1   force =     0.00086068    0.00000000   -0.00745589
     atom    3 type  1   force =     0.00188742    0.00188742   -0.00838634
     atom    4 type  1   force =    -0.00188742   -0.00188742   -0.00838634
     atom    5 type  1   force =    -0.00086068    0.00000000   -0.00745589
     atom    6 type  1   force =    -0.00188742    0.00188742   -0.00838634
     atom    7 type  1   force =     0.00000000   -0.00086068   -0.00745589
     atom    8 type  1   force =     0.00000000    0.00000000   -0.00709862
     atom    9 type  1   force =     0.00000000    0.00086068   -0.00745589
     atom   10 type  1   force =     0.00000000    0.00103362    0.01507703
     atom   11 type  1   force =     0.00000000   -0.00103362    0.01507703
     atom   12 type  1   force =     0.00000000    0.00000000    0.01491042
     atom   13 type  1   force =    -0.00325506   -0.00325506    0.01084360
     atom   14 type  1   force =    -0.00325506    0.00325506    0.01084360
     atom   15 type  1   force =     0.00103362    0.00000000    0.01507703
     atom   16 type  1   force =     0.00325506   -0.00325506    0.01084360
     atom   17 type  1   force =     0.00325506    0.00325506    0.01084360
     atom   18 type  1   force =    -0.00103362    0.00000000    0.01507703
     atom   19 type  1   force =     0.00120918   -0.00120918   -0.00839391
     atom   20 type  1   force =    -0.00069817    0.00000000   -0.00675771
     atom   21 type  1   force =     0.00120918    0.00120918   -0.00839391
     atom   22 type  1   force =    -0.00120918   -0.00120918   -0.00839391
     atom   23 type  1   force =     0.00069817    0.00000000   -0.00675771
     atom   24 type  1   force =    -0.00120918    0.00120918   -0.00839391
     atom   25 type  1   force =     0.00000000    0.00069817   -0.00675771
     atom   26 type  1   force =     0.00000000    0.00000000   -0.00836531
     atom   27 type  1   force =     0.00000000   -0.00069817   -0.00675771
     atom   28 type  1   force =     0.00000000   -0.00029733    0.00383262
     atom   29 type  1   force =     0.00000000    0.00029733    0.00383262
     atom   30 type  1   force =     0.00000000    0.00000000    0.00273707
     atom   31 type  1   force =    -0.00163716   -0.00163716    0.00156222
     atom   32 type  1   force =    -0.00163716    0.00163716    0.00156222
     atom   33 type  1   force =    -0.00029733    0.00000000    0.00383262
     atom   34 type  1   force =     0.00163716   -0.00163716    0.00156222
     atom   35 type  1   force =     0.00163716    0.00163716    0.00156222
     atom   36 type  1   force =     0.00029733    0.00000000    0.00383262
     atom   37 type  2   force =     0.00000000    0.00000000   -0.00347003

     Total force =     0.025651     Total SCF correction =     0.000097
     Energy error            =      2.1E-03 Ry
     Gradient error          =      8.4E-03 Ry/Bohr

     number of scf cycles    =   4
     number of bfgs steps    =   3

     energy             old  =   -1463.1247900026 Ry
     energy             new  =   -1463.1268953587 Ry

     CASE: energy            _new < energy            _old

     new trust radius        =       0.0373442591 bohr
     new conv_thr            =       0.0000000084 Ry


ATOMIC_POSITIONS (alat)
Al               0.0000000000        0.0000000000        0.0000000000    0   0   0
Al               0.0000000000        0.9999999970        0.0000000000    0   0   0
Al               0.0000000000        1.9999999940        0.0000000000    0   0   0
Al               0.9999999970        0.0000000000        0.0000000000    0   0   0
Al               0.9999999970        0.9999999970        0.0000000000    0   0   0
Al               0.9999999970        1.9999999940        0.0000000000    0   0   0
Al               1.9999999940        0.0000000000        0.0000000000    0   0   0
Al               1.9999999940        0.9999999970        0.0000000000    0   0   0
Al               1.9999999940        1.9999999940        0.0000000000    0   0   0
Al               0.4999999984        0.4999999984        0.7071067669    0   0   0
Al               0.4999999984        1.4999999956        0.7071067669    0   0   0
Al               0.4999999984        2.4999999924        0.7071067669    0   0   0
Al               1.4999999956        0.4999999984        0.7071067669    0   0   0
Al               1.4999999956        1.4999999956        0.7071067669    0   0   0
Al               1.4999999956        2.4999999924        0.7071067669    0   0   0
Al               2.4999999924        0.4999999984        0.7071067669    0   0   0
Al               2.4999999924        1.4999999956        0.7071067669    0   0   0
Al               2.4999999924        2.4999999924        0.7071067669    0   0   0
Al               0.0028576135       -0.0028576135        1.4088673549
Al              -0.0077873406        0.9999999970        1.4395929628
Al               0.0028576135        2.0028576076        1.4088637592
Al               0.9971423835       -0.0028576135        1.4088637592
Al               1.0077873377        0.9999999970        1.4395920041
Al               0.9971423835        2.0028576076        1.4088628005
Al               1.9999999940        0.0077873406        1.4395929628
Al               1.9999999940        0.9999999970        1.3704782034
Al               1.9999999940        1.9922126534        1.4395920041
Al               0.4999999984        0.4977304220        2.1732906652
Al               0.4999999984        1.5022695721        2.1732894772
Al               0.4999999984        2.4999999924        2.1556407603
Al               1.5113928813        0.5113928843        2.1667934562
Al               1.5113928813        1.4886071098        2.1667957137
Al               1.4977304190        2.4999999924        2.1732894772
Al               2.4886071068        0.5113928843        2.1667946442
Al               2.4886071068        1.4886071098        2.1667934562
Al               2.5022695691        2.4999999924        2.1732906652
O                1.9999999987        0.9999999994        2.4048802226    0   0   1



     Writing config-only to output data dir ./tmp/Al.save/ :
     XML data file
     NEW-OLD atomic charge density approx. for the potential

     negative rho (up, down):  5.150E-04 0.000E+00

     total cpu time spent up to now is      334.7 secs

     Self-consistent Calculation

     iteration #  1     ecut=    40.00 Ry     beta= 0.50
     Davidson diagonalization with overlap
     ethr =  1.00E-06,  avg # of iterations = 11.0

     negative rho (up, down):  4.539E-04 0.000E+00

     total cpu time spent up to now is      344.2 secs

     total energy              =   -1463.12905656 Ry
     estimated scf accuracy    <       0.00272274 Ry

     iteration #  2     ecut=    40.00 Ry     beta= 0.50
     Davidson diagonalization with overlap
     ethr =  2.39E-06,  avg # of iterations =  1.0

     negative rho (up, down):  3.701E-04 0.000E+00

     total cpu time spent up to now is      351.1 secs

     total energy              =   -1463.12894078 Ry
     estimated scf accuracy    <       0.00084382 Ry

     iteration #  3     ecut=    40.00 Ry     beta= 0.50
     Davidson diagonalization with overlap
     ethr =  7.40E-07,  avg # of iterations =  2.0

     negative rho (up, down):  3.792E-04 0.000E+00

     total cpu time spent up to now is      358.1 secs

     total energy              =   -1463.12902690 Ry
     estimated scf accuracy    <       0.00003477 Ry

     iteration #  4     ecut=    40.00 Ry     beta= 0.50
     Davidson diagonalization with overlap
     ethr =  3.05E-08,  avg # of iterations = 10.0

     negative rho (up, down):  3.866E-04 0.000E+00

     total cpu time spent up to now is      366.4 secs

     total energy              =   -1463.12904165 Ry
     estimated scf accuracy    <       0.00000329 Ry

     iteration #  5     ecut=    40.00 Ry     beta= 0.50
     Davidson diagonalization with overlap
     ethr =  2.89E-09,  avg # of iterations =  5.0

     negative rho (up, down):  4.183E-04 0.000E+00

     total cpu time spent up to now is      374.3 secs

     total energy              =   -1463.12904196 Ry
     estimated scf accuracy    <       0.00000228 Ry

     iteration #  6     ecut=    40.00 Ry     beta= 0.50
     Davidson diagonalization with overlap
     ethr =  2.00E-09,  avg # of iterations =  2.0

     negative rho (up, down):  4.338E-04 0.000E+00

     total cpu time spent up to now is      381.6 secs

     total energy              =   -1463.12904223 Ry
     estimated scf accuracy    <       0.00000159 Ry

     iteration #  7     ecut=    40.00 Ry     beta= 0.50
     Davidson diagonalization with overlap
     ethr =  1.39E-09,  avg # of iterations =  1.0

     negative rho (up, down):  4.405E-04 0.000E+00

     total cpu time spent up to now is      388.5 secs

     total energy              =   -1463.12904225 Ry
     estimated scf accuracy    <       0.00000054 Ry

     iteration #  8     ecut=    40.00 Ry     beta= 0.50
     Davidson diagonalization with overlap
     ethr =  4.75E-10,  avg # of iterations =  2.0

     negative rho (up, down):  4.666E-04 0.000E+00

     total cpu time spent up to now is      395.4 secs

     total energy              =   -1463.12904229 Ry
     estimated scf accuracy    <       0.00000011 Ry

     iteration #  9     ecut=    40.00 Ry     beta= 0.50
     Davidson diagonalization with overlap
     ethr =  9.37E-11,  avg # of iterations =  7.0

     negative rho (up, down):  4.790E-04 0.000E+00

     total cpu time spent up to now is      403.7 secs

     total energy              =   -1463.12904230 Ry
     estimated scf accuracy    <       0.00000038 Ry

     iteration # 10     ecut=    40.00 Ry     beta= 0.50
     Davidson diagonalization with overlap
     ethr =  9.37E-11,  avg # of iterations =  5.0

     negative rho (up, down):  4.946E-04 0.000E+00

     total cpu time spent up to now is      411.2 secs

     total energy              =   -1463.12904234 Ry
     estimated scf accuracy    <          8.7E-09 Ry

     iteration # 11     ecut=    40.00 Ry     beta= 0.50
     Davidson diagonalization with overlap
     ethr =  7.67E-12,  avg # of iterations = 11.0

     negative rho (up, down):  5.039E-04 0.000E+00

     total cpu time spent up to now is      420.2 secs

     total energy              =   -1463.12904231 Ry
     estimated scf accuracy    <       0.00000016 Ry

     iteration # 12     ecut=    40.00 Ry     beta= 0.50
     Davidson diagonalization with overlap
     ethr =  7.67E-12,  avg # of iterations =  6.0

     negative rho (up, down):  5.064E-04 0.000E+00

     total cpu time spent up to now is      428.4 secs

     total energy              =   -1463.12904233 Ry
     estimated scf accuracy    <          8.8E-09 Ry

     iteration # 13     ecut=    40.00 Ry     beta= 0.50
     Davidson diagonalization with overlap
     ethr =  7.67E-12,  avg # of iterations =  2.0

     negative rho (up, down):  5.165E-04 0.000E+00

     total cpu time spent up to now is      434.3 secs

     End of self-consistent calculation

          k = 0.0833 0.0833 0.0000 ( 48259 PWs)   bands (ev):

   -19.4875 -10.1348  -9.1717  -9.1217  -8.7609  -8.1715  -7.9327  -7.7951
    -7.3430  -7.1644  -7.0261  -6.7754  -6.6676  -6.4366  -6.1663  -6.1096
    -5.8160  -5.7476  -5.4941  -5.4364  -4.9899  -4.6341  -4.6199  -4.3418
    -4.2229  -4.2132  -3.9694  -3.8723  -3.7144  -3.3972  -3.2865  -3.2579
    -2.9692  -2.9344  -2.9064  -2.8685  -2.7598  -2.4803  -2.2784  -1.9924
    -1.9865  -1.9287  -1.6037  -1.5522  -1.1031  -1.0809  -0.8059  -0.7978
    -0.7369  -0.6505  -0.5917  -0.5526  -0.4538  -0.4427  -0.3227  -0.1446
    -0.0709   0.0125   0.2051   0.2370   0.5796   0.8068   0.8548   1.0281
     1.0408   1.1399   1.1919   1.3774

     the Fermi energy is     0.0264 ev

!    total energy              =   -1463.12904232 Ry
     total all-electron energy =    -17633.116072 Ry
     estimated scf accuracy    <          1.6E-09 Ry
     smearing contrib. (-TS)   =       0.01252610 Ry
     internal energy E=F+TS    =   -1463.14156842 Ry

     The total energy is F=E-TS. E is the sum of the following terms:
     one-electron contribution =   -1680.15538124 Ry
     hartree contribution      =     868.97610547 Ry
     xc contribution           =     -98.57695524 Ry
     ewald contribution        =     704.52569127 Ry
     one-center paw contrib.   =   -1257.91102868 Ry

     convergence has been achieved in  13 iterations

     negative rho (up, down):  5.165E-04 0.000E+00

     Forces acting on atoms (cartesian axes, Ry/au):

     atom    1 type  1   force =     0.00193755   -0.00193755   -0.00799084
     atom    2 type  1   force =     0.00097555    0.00000000   -0.00704290
     atom    3 type  1   force =     0.00193755    0.00193755   -0.00799084
     atom    4 type  1   force =    -0.00193755   -0.00193755   -0.00799084
     atom    5 type  1   force =    -0.00097555    0.00000000   -0.00704290
     atom    6 type  1   force =    -0.00193755    0.00193755   -0.00799084
     atom    7 type  1   force =     0.00000000   -0.00097555   -0.00704290
     atom    8 type  1   force =     0.00000000    0.00000000   -0.00671373
     atom    9 type  1   force =     0.00000000    0.00097555   -0.00704290
     atom   10 type  1   force =    -0.00000000    0.00138256    0.01334787
     atom   11 type  1   force =     0.00000000   -0.00138256    0.01334787
     atom   12 type  1   force =     0.00000000    0.00000000    0.01203272
     atom   13 type  1   force =    -0.00349906   -0.00349906    0.00906227
     atom   14 type  1   force =    -0.00349906    0.00349906    0.00906227
     atom   15 type  1   force =     0.00138256    0.00000000    0.01334787
     atom   16 type  1   force =     0.00349906   -0.00349906    0.00906227
     atom   17 type  1   force =     0.00349906    0.00349906    0.00906227
     atom   18 type  1   force =    -0.00138256   -0.00000000    0.01334787
     atom   19 type  1   force =     0.00060374   -0.00060374   -0.00499587
     atom   20 type  1   force =    -0.00032770   -0.00000000   -0.00419655
     atom   21 type  1   force =     0.00060374    0.00060374   -0.00499587
     atom   22 type  1   force =    -0.00060374   -0.00060374   -0.00499587
     atom   23 type  1   force =     0.00032770    0.00000000   -0.00419655
     atom   24 type  1   force =    -0.00060374    0.00060374   -0.00499587
     atom   25 type  1   force =     0.00000000    0.00032770   -0.00419655
     atom   26 type  1   force =     0.00000000    0.00000000   -0.00503269
     atom   27 type  1   force =    -0.00000000   -0.00032770   -0.00419655
     atom   28 type  1   force =     0.00000000   -0.00024477    0.00193096
     atom   29 type  1   force =    -0.00000000    0.00024477    0.00193096
     atom   30 type  1   force =     0.00000000    0.00000000    0.00102331
     atom   31 type  1   force =    -0.00108191   -0.00108191    0.00026103
     atom   32 type  1   force =    -0.00108191    0.00108191    0.00026103
     atom   33 type  1   force =    -0.00024477   -0.00000000    0.00193096
     atom   34 type  1   force =     0.00108191   -0.00108191    0.00026103
     atom   35 type  1   force =     0.00108191    0.00108191    0.00026103
     atom   36 type  1   force =     0.00024477    0.00000000    0.00193096
     atom   37 type  2   force =     0.00000000    0.00000000   -0.00281349

     Total force =     0.015255     Total SCF correction =     0.000041
     Energy error            =      2.1E-03 Ry
     Gradient error          =      5.0E-03 Ry/Bohr

     number of scf cycles    =   5
     number of bfgs steps    =   4

     energy             old  =   -1463.1268953587 Ry
     energy             new  =   -1463.1290423217 Ry

     CASE: energy            _new < energy            _old

     new trust radius        =       0.0560163887 bohr
     new conv_thr            =       0.0000000050 Ry


ATOMIC_POSITIONS (alat)
Al               0.0000000000        0.0000000000        0.0000000000    0   0   0
Al               0.0000000000        0.9999999971        0.0000000000    0   0   0
Al               0.0000000000        1.9999999942        0.0000000000    0   0   0
Al               0.9999999971        0.0000000000        0.0000000000    0   0   0
Al               0.9999999971        0.9999999971        0.0000000000    0   0   0
Al               0.9999999971        1.9999999942        0.0000000000    0   0   0
Al               1.9999999942        0.0000000000        0.0000000000    0   0   0
Al               1.9999999942        0.9999999971        0.0000000000    0   0   0
Al               1.9999999942        1.9999999942        0.0000000000    0   0   0
Al               0.4999999985        0.4999999985        0.7071067669    0   0   0
Al               0.4999999985        1.4999999958        0.7071067669    0   0   0
Al               0.4999999985        2.4999999927        0.7071067669    0   0   0
Al               1.4999999958        0.4999999985        0.7071067669    0   0   0
Al               1.4999999958        1.4999999958        0.7071067669    0   0   0
Al               1.4999999958        2.4999999927        0.7071067669    0   0   0
Al               2.4999999927        0.4999999985        0.7071067669    0   0   0
Al               2.4999999927        1.4999999958        0.7071067669    0   0   0
Al               2.4999999927        2.4999999927        0.7071067669    0   0   0
Al               0.0047269171       -0.0047269171        1.3988253436
Al              -0.0077482660        0.9999999971        1.4314037110
Al               0.0047269171        2.0047269114        1.3988217479
Al               0.9952730800       -0.0047269171        1.3988217479
Al               1.0077482632        0.9999999971        1.4314027523
Al               0.9952730800        2.0047269114        1.3988207892
Al               1.9999999942        0.0077482660        1.4314037110
Al               1.9999999942        0.9999999971        1.3632854278
Al               1.9999999942        1.9922517282        1.4314027523
Al               0.4999999985        0.4972837153        2.1765748409
Al               0.4999999985        1.5027162790        2.1765736529
Al               0.4999999985        2.4999999927        2.1565576719
Al               1.5093271507        0.5093271536        2.1665484652
Al               1.5093271507        1.4906728407        2.1665507227
Al               1.4972837124        2.4999999927        2.1765736529
Al               2.4906728378        0.5093271536        2.1665496532
Al               2.4906728378        1.4906728407        2.1665484652
Al               2.5027162761        2.4999999927        2.1765748409
O                1.9999999989        0.9999999995        2.3984021679    0   0   1



     Writing config-only to output data dir ./tmp/Al.save/ :
     XML data file
     NEW-OLD atomic charge density approx. for the potential

     negative rho (up, down):  5.093E-04 0.000E+00

     total cpu time spent up to now is      441.8 secs

     Self-consistent Calculation

     iteration #  1     ecut=    40.00 Ry     beta= 0.50
     Davidson diagonalization with overlap
     ethr =  1.00E-06,  avg # of iterations = 10.0

     negative rho (up, down):  4.326E-04 0.000E+00

     total cpu time spent up to now is      451.9 secs

     total energy              =   -1463.13034042 Ry
     estimated scf accuracy    <       0.00643377 Ry

     iteration #  2     ecut=    40.00 Ry     beta= 0.50
     Davidson diagonalization with overlap
     ethr =  5.64E-06,  avg # of iterations =  1.0

     negative rho (up, down):  3.263E-04 0.000E+00

     total cpu time spent up to now is      458.7 secs

     total energy              =   -1463.13007679 Ry
     estimated scf accuracy    <       0.00197853 Ry

     iteration #  3     ecut=    40.00 Ry     beta= 0.50
     Davidson diagonalization with overlap
     ethr =  1.74E-06,  avg # of iterations =  2.0

     negative rho (up, down):  3.214E-04 0.000E+00

     total cpu time spent up to now is      465.9 secs

     total energy              =   -1463.13026531 Ry
     estimated scf accuracy    <       0.00005135 Ry

     iteration #  4     ecut=    40.00 Ry     beta= 0.50
     Davidson diagonalization with overlap
     ethr =  4.50E-08,  avg # of iterations = 10.0

     negative rho (up, down):  3.253E-04 0.000E+00

     total cpu time spent up to now is      474.3 secs

     total energy              =   -1463.13029945 Ry
     estimated scf accuracy    <       0.00001146 Ry

     iteration #  5     ecut=    40.00 Ry     beta= 0.50
     Davidson diagonalization with overlap
     ethr =  1.01E-08,  avg # of iterations =  2.0

     negative rho (up, down):  3.793E-04 0.000E+00

     total cpu time spent up to now is      481.4 secs

     total energy              =   -1463.13029755 Ry
     estimated scf accuracy    <       0.00000805 Ry

     iteration #  6     ecut=    40.00 Ry     beta= 0.50
     Davidson diagonalization with overlap
     ethr =  7.06E-09,  avg # of iterations =  6.0

     negative rho (up, down):  3.791E-04 0.000E+00

     total cpu time spent up to now is      489.1 secs

     total energy              =   -1463.13029989 Ry
     estimated scf accuracy    <       0.00000817 Ry

     iteration #  7     ecut=    40.00 Ry     beta= 0.50
     Davidson diagonalization with overlap
     ethr =  7.06E-09,  avg # of iterations =  1.0

     negative rho (up, down):  3.797E-04 0.000E+00

     total cpu time spent up to now is      496.0 secs

     total energy              =   -1463.13029977 Ry
     estimated scf accuracy    <       0.00000457 Ry

     iteration #  8     ecut=    40.00 Ry     beta= 0.50
     Davidson diagonalization with overlap
     ethr =  4.01E-09,  avg # of iterations =  1.0

     negative rho (up, down):  4.259E-04 0.000E+00

     total cpu time spent up to now is      502.9 secs

     total energy              =   -1463.13029940 Ry
     estimated scf accuracy    <       0.00000262 Ry

     iteration #  9     ecut=    40.00 Ry     beta= 0.50
     Davidson diagonalization with overlap
     ethr =  2.30E-09,  avg # of iterations =  5.0

     negative rho (up, down):  4.518E-04 0.000E+00

     total cpu time spent up to now is      510.2 secs

     total energy              =   -1463.13029996 Ry
     estimated scf accuracy    <       0.00000048 Ry

     iteration # 10     ecut=    40.00 Ry     beta= 0.50
     Davidson diagonalization with overlap
     ethr =  4.25E-10,  avg # of iterations =  5.0

     negative rho (up, down):  4.644E-04 0.000E+00

     total cpu time spent up to now is      517.6 secs

     total energy              =   -1463.13029991 Ry
     estimated scf accuracy    <       0.00000030 Ry

     iteration # 11     ecut=    40.00 Ry     beta= 0.50
     Davidson diagonalization with overlap
     ethr =  2.61E-10,  avg # of iterations =  3.0

     negative rho (up, down):  4.934E-04 0.000E+00

     total cpu time spent up to now is      525.1 secs

     total energy              =   -1463.13030000 Ry
     estimated scf accuracy    <       0.00000007 Ry

     iteration # 12     ecut=    40.00 Ry     beta= 0.50
     Davidson diagonalization with overlap
     ethr =  5.80E-11,  avg # of iterations =  5.0

     negative rho (up, down):  4.996E-04 0.000E+00

     total cpu time spent up to now is      532.7 secs

     total energy              =   -1463.13029999 Ry
     estimated scf accuracy    <       0.00000014 Ry

     iteration # 13     ecut=    40.00 Ry     beta= 0.50
     Davidson diagonalization with overlap
     ethr =  5.80E-11,  avg # of iterations =  2.0

     negative rho (up, down):  5.084E-04 0.000E+00

     total cpu time spent up to now is      539.9 secs

     total energy              =   -1463.13030000 Ry
     estimated scf accuracy    <       0.00000004 Ry

     iteration # 14     ecut=    40.00 Ry     beta= 0.50
     Davidson diagonalization with overlap
     ethr =  3.46E-11,  avg # of iterations =  4.0

     negative rho (up, down):  5.147E-04 0.000E+00

     total cpu time spent up to now is      546.3 secs

     End of self-consistent calculation

          k = 0.0833 0.0833 0.0000 ( 48259 PWs)   bands (ev):

   -19.4703 -10.1453  -9.1859  -9.1262  -8.7167  -8.1795  -7.8954  -7.7545
    -7.3411  -7.1638  -7.0178  -6.7681  -6.6663  -6.4160  -6.1735  -6.1221
    -5.7880  -5.7322  -5.4795  -5.4245  -4.9569  -4.6322  -4.5811  -4.3367
    -4.2360  -4.2240  -3.9735  -3.8672  -3.7237  -3.3941  -3.3009  -3.2643
    -2.9612  -2.9178  -2.9025  -2.8494  -2.7254  -2.4628  -2.2554  -1.9807
    -1.9658  -1.9177  -1.5855  -1.5497  -1.1075  -1.0897  -0.8048  -0.8021
    -0.7229  -0.6498  -0.5653  -0.5568  -0.4641  -0.4480  -0.3246  -0.1527
    -0.0703   0.0008   0.2062   0.2388   0.6029   0.8494   0.8874   1.0335
     1.0721   1.1690   1.2011   1.3701

     the Fermi energy is     0.0261 ev

!    total energy              =   -1463.13030000 Ry
     total all-electron energy =    -17633.117329 Ry
     estimated scf accuracy    <          4.5E-09 Ry
     smearing contrib. (-TS)   =       0.01386145 Ry
     internal energy E=F+TS    =   -1463.14416146 Ry

     The total energy is F=E-TS. E is the sum of the following terms:
     one-electron contribution =   -1681.77453762 Ry
     hartree contribution      =     869.81568460 Ry
     xc contribution           =     -98.57755101 Ry
     ewald contribution        =     705.30572925 Ry
     one-center paw contrib.   =   -1257.91348668 Ry

     convergence has been achieved in  14 iterations

     negative rho (up, down):  5.147E-04 0.000E+00

     Forces acting on atoms (cartesian axes, Ry/au):

     atom    1 type  1   force =     0.00201431   -0.00201431   -0.00741832
     atom    2 type  1   force =     0.00115567    0.00000000   -0.00645370
     atom    3 type  1   force =     0.00201431    0.00201431   -0.00741832
     atom    4 type  1   force =    -0.00201431   -0.00201431   -0.00741832
     atom    5 type  1   force =    -0.00115567    0.00000000   -0.00645370
     atom    6 type  1   force =    -0.00201431    0.00201431   -0.00741832
     atom    7 type  1   force =     0.00000000   -0.00115567   -0.00645370
     atom    8 type  1   force =     0.00000000    0.00000000   -0.00617899
     atom    9 type  1   force =     0.00000000    0.00115567   -0.00645370
     atom   10 type  1   force =    -0.00000000    0.00194866    0.01069570
     atom   11 type  1   force =     0.00000000   -0.00194866    0.01069570
     atom   12 type  1   force =     0.00000000    0.00000000    0.00748426
     atom   13 type  1   force =    -0.00385857   -0.00385857    0.00641818
     atom   14 type  1   force =    -0.00385857    0.00385857    0.00641818
     atom   15 type  1   force =     0.00194866   -0.00000000    0.01069570
     atom   16 type  1   force =     0.00385857   -0.00385857    0.00641818
     atom   17 type  1   force =     0.00385857    0.00385857    0.00641818
     atom   18 type  1   force =    -0.00194866   -0.00000000    0.01069570
     atom   19 type  1   force =    -0.00037503    0.00037503    0.00001871
     atom   20 type  1   force =     0.00013640   -0.00000000   -0.00050632
     atom   21 type  1   force =    -0.00037503   -0.00037503    0.00001871
     atom   22 type  1   force =     0.00037503    0.00037503    0.00001871
     atom   23 type  1   force =    -0.00013640    0.00000000   -0.00050632
     atom   24 type  1   force =     0.00037503   -0.00037503    0.00001871
     atom   25 type  1   force =    -0.00000000   -0.00013640   -0.00050632
     atom   26 type  1   force =     0.00000000    0.00000000   -0.00042733
     atom   27 type  1   force =     0.00000000    0.00013640   -0.00050632
     atom   28 type  1   force =    -0.00000000   -0.00014887   -0.00068375
     atom   29 type  1   force =     0.00000000    0.00014887   -0.00068375
     atom   30 type  1   force =     0.00000000    0.00000000   -0.00135806
     atom   31 type  1   force =    -0.00022922   -0.00022922   -0.00148067
     atom   32 type  1   force =    -0.00022922    0.00022922   -0.00148067
     atom   33 type  1   force =    -0.00014887    0.00000000   -0.00068375
     atom   34 type  1   force =     0.00022922   -0.00022922   -0.00148067
     atom   35 type  1   force =     0.00022922    0.00022922   -0.00148067
     atom   36 type  1   force =     0.00014887   -0.00000000   -0.00068375
     atom   37 type  2   force =     0.00000000    0.00000000   -0.00187919

     Total force =     0.004351     Total SCF correction =     0.000091
     Energy error            =      1.3E-03 Ry
     Gradient error          =      1.9E-03 Ry/Bohr

     number of scf cycles    =   6
     number of bfgs steps    =   5

     energy             old  =   -1463.1290423217 Ry
     energy             new  =   -1463.1303000045 Ry

     CASE: energy            _new < energy            _old

     new trust radius        =       0.0075596897 bohr
     new conv_thr            =       0.0000000019 Ry


ATOMIC_POSITIONS (alat)
Al               0.0000000000        0.0000000000        0.0000000000    0   0   0
Al               0.0000000000        0.9999999971        0.0000000000    0   0   0
Al               0.0000000000        1.9999999942        0.0000000000    0   0   0
Al               0.9999999971        0.0000000000        0.0000000000    0   0   0
Al               0.9999999971        0.9999999971        0.0000000000    0   0   0
Al               0.9999999971        1.9999999942        0.0000000000    0   0   0
Al               1.9999999942        0.0000000000        0.0000000000    0   0   0
Al               1.9999999942        0.9999999971        0.0000000000    0   0   0
Al               1.9999999942        1.9999999942        0.0000000000    0   0   0
Al               0.4999999985        0.4999999985        0.7071067669    0   0   0
Al               0.4999999985        1.4999999958        0.7071067669    0   0   0
Al               0.4999999985        2.4999999927        0.7071067669    0   0   0
Al               1.4999999958        0.4999999985        0.7071067669    0   0   0
Al               1.4999999958        1.4999999958        0.7071067669    0   0   0
Al               1.4999999958        2.4999999927        0.7071067669    0   0   0
Al               2.4999999927        0.4999999985        0.7071067669    0   0   0
Al               2.4999999927        1.4999999958        0.7071067669    0   0   0
Al               2.4999999927        2.4999999927        0.7071067669    0   0   0
Al               0.0047892999       -0.0047892999        1.3980675213
Al              -0.0075981197        0.9999999971        1.4305963853
Al               0.0047892999        2.0047892941        1.3980639256
Al               0.9952106972       -0.0047892999        1.3980639256
Al               1.0075981169        0.9999999971        1.4305954266
Al               0.9952106972        2.0047892941        1.3980629669
Al               1.9999999942        0.0075981197        1.4305963853
Al               1.9999999942        0.9999999971        1.3629137939
Al               1.9999999942        1.9924018745        1.4305954266
Al               0.4999999985        0.4971876656        2.1764377074
Al               0.4999999985        1.5028123287        2.1764365194
Al               0.4999999985        2.4999999927        2.1558906177
Al               1.5090775268        0.5090775297        2.1657768326
Al               1.5090775268        1.4909224646        2.1657790901
Al               1.4971876627        2.4999999927        2.1764365194
Al               2.4909224617        0.5090775297        2.1657780206
Al               2.4909224617        1.4909224646        2.1657768326
[...]
     atom   23 type  1   force =     0.00014739    0.00000000   -0.00002940
     atom   24 type  1   force =     0.00006165   -0.00006165   -0.00001298
     atom   25 type  1   force =     0.00000000    0.00014739   -0.00002940
     atom   26 type  1   force =     0.00000000    0.00000000   -0.00133986
     atom   27 type  1   force =    -0.00000000   -0.00014739   -0.00002940
     atom   28 type  1   force =     0.00000000    0.00021481   -0.00059859
     atom   29 type  1   force =     0.00000000   -0.00021481   -0.00059859
     atom   30 type  1   force =     0.00000000    0.00000000   -0.00014262
     atom   31 type  1   force =     0.00030913    0.00030913   -0.00063067
     atom   32 type  1   force =     0.00030913   -0.00030913   -0.00063067
     atom   33 type  1   force =     0.00021481    0.00000000   -0.00059859
     atom   34 type  1   force =    -0.00030913    0.00030913   -0.00063067
     atom   35 type  1   force =    -0.00030913   -0.00030913   -0.00063067
     atom   36 type  1   force =    -0.00021481    0.00000000   -0.00059859
     atom   37 type  2   force =     0.00000000    0.00000000   -0.00033721

     Total force =     0.002454     Total SCF correction =     0.000025
     Energy error            =      1.3E-04 Ry
     Gradient error          =      1.3E-03 Ry/Bohr

     number of scf cycles    =  11
     number of bfgs steps    =  10

     energy             old  =   -1463.1306229703 Ry
     energy             new  =   -1463.1307486088 Ry

     CASE: energy            _new < energy            _old

     new trust radius        =       0.0420980219 bohr
     new conv_thr            =       0.0000000013 Ry


ATOMIC_POSITIONS (alat)
Al               0.0000000000        0.0000000000        0.0000000000    0   0   0
Al               0.0000000000        0.9999999970        0.0000000000    0   0   0
Al               0.0000000000        1.9999999939        0.0000000000    0   0   0
Al               0.9999999970        0.0000000000        0.0000000000    0   0   0
Al               0.9999999970        0.9999999970        0.0000000000    0   0   0
Al               0.9999999970        1.9999999939        0.0000000000    0   0   0
Al               1.9999999939        0.0000000000        0.0000000000    0   0   0
Al               1.9999999939        0.9999999970        0.0000000000    0   0   0
Al               1.9999999939        1.9999999939        0.0000000000    0   0   0
Al               0.4999999984        0.4999999984        0.7071067668    0   0   0
Al               0.4999999984        1.4999999956        0.7071067668    0   0   0
Al               0.4999999984        2.4999999924        0.7071067668    0   0   0
Al               1.4999999956        0.4999999984        0.7071067668    0   0   0
Al               1.4999999956        1.4999999956        0.7071067668    0   0   0
Al               1.4999999956        2.4999999924        0.7071067668    0   0   0
Al               2.4999999924        0.4999999984        0.7071067668    0   0   0
Al               2.4999999924        1.4999999956        0.7071067668    0   0   0
Al               2.4999999924        2.4999999924        0.7071067668    0   0   0
Al               0.0041283128       -0.0041283128        1.3939807583
Al              -0.0054059639        0.9999999970        1.4241122841
Al               0.0041283128        2.0041283068        1.3939771626
Al               0.9958716841       -0.0041283128        1.3939771626
Al               1.0054059610        0.9999999970        1.4241113254
Al               0.9958716841        2.0041283068        1.3939762039
Al               1.9999999939        0.0054059639        1.4241122841
Al               1.9999999939        0.9999999970        1.3580925796
Al               1.9999999939        1.9945940300        1.4241113254
Al               0.4999999984        0.4968500137        2.1686027498
Al               0.4999999984        1.5031499803        2.1686015618
Al               0.4999999984        2.4999999924        2.1425800750
Al               1.5081949614        0.5081949644        2.1501227319
Al               1.5081949614        1.4918050296        2.1501249894
Al               1.4968500107        2.4999999924        2.1686015618
Al               2.4918050266        0.5081949644        2.1501239199
Al               2.4918050266        1.4918050296        2.1501227319
Al               2.5031499773        2.4999999924        2.1686027498
O                1.9999999986        0.9999999994        2.3766718229    0   0   1



     Writing config-only to output data dir ./tmp/Al.save/ :
     XML data file
     NEW-OLD atomic charge density approx. for the potential

     negative rho (up, down):  5.190E-04 0.000E+00

     total cpu time spent up to now is     1225.7 secs

     Self-consistent Calculation

     iteration #  1     ecut=    40.00 Ry     beta= 0.50
     Davidson diagonalization with overlap
     ethr =  1.00E-06,  avg # of iterations =  7.0

     negative rho (up, down):  5.320E-04 0.000E+00

     total cpu time spent up to now is     1233.8 secs

     total energy              =   -1463.13084510 Ry
     estimated scf accuracy    <       0.00047899 Ry

     iteration #  2     ecut=    40.00 Ry     beta= 0.50
     Davidson diagonalization with overlap
     ethr =  4.20E-07,  avg # of iterations =  5.0

     negative rho (up, down):  4.814E-04 0.000E+00

     total cpu time spent up to now is     1240.2 secs

     total energy              =   -1463.13080883 Ry
     estimated scf accuracy    <       0.00024193 Ry

     iteration #  3     ecut=    40.00 Ry     beta= 0.50
     Davidson diagonalization with overlap
     ethr =  2.12E-07,  avg # of iterations =  4.0

     negative rho (up, down):  4.603E-04 0.000E+00

     total cpu time spent up to now is     1246.7 secs

     total energy              =   -1463.13084415 Ry
     estimated scf accuracy    <       0.00001294 Ry

     iteration #  4     ecut=    40.00 Ry     beta= 0.50
     Davidson diagonalization with overlap
     ethr =  1.13E-08,  avg # of iterations =  7.0

     negative rho (up, down):  4.587E-04 0.000E+00

     total cpu time spent up to now is     1253.7 secs

     total energy              =   -1463.13084794 Ry
     estimated scf accuracy    <       0.00000841 Ry

     iteration #  5     ecut=    40.00 Ry     beta= 0.50
     Davidson diagonalization with overlap
     ethr =  7.37E-09,  avg # of iterations =  2.0

     negative rho (up, down):  4.558E-04 0.000E+00

     total cpu time spent up to now is     1259.9 secs

     total energy              =   -1463.13084738 Ry
     estimated scf accuracy    <       0.00000542 Ry

     iteration #  6     ecut=    40.00 Ry     beta= 0.50
     Davidson diagonalization with overlap
     ethr =  4.75E-09,  avg # of iterations =  3.0

     negative rho (up, down):  4.613E-04 0.000E+00

     total cpu time spent up to now is     1266.3 secs

     total energy              =   -1463.13084774 Ry
     estimated scf accuracy    <       0.00000015 Ry

     iteration #  7     ecut=    40.00 Ry     beta= 0.50
     Davidson diagonalization with overlap
     ethr =  1.32E-10,  avg # of iterations = 13.0

     negative rho (up, down):  4.657E-04 0.000E+00

     total cpu time spent up to now is     1274.6 secs

     total energy              =   -1463.13084788 Ry
     estimated scf accuracy    <       0.00000053 Ry

     iteration #  8     ecut=    40.00 Ry     beta= 0.50
     Davidson diagonalization with overlap
     ethr =  1.32E-10,  avg # of iterations =  1.0

     negative rho (up, down):  4.808E-04 0.000E+00

     total cpu time spent up to now is     1280.7 secs

     total energy              =   -1463.13084785 Ry
     estimated scf accuracy    <       0.00000021 Ry

     iteration #  9     ecut=    40.00 Ry     beta= 0.50
     Davidson diagonalization with overlap
     ethr =  1.32E-10,  avg # of iterations =  2.0

     negative rho (up, down):  4.908E-04 0.000E+00

     total cpu time spent up to now is     1287.0 secs

     total energy              =   -1463.13084786 Ry
     estimated scf accuracy    <       0.00000003 Ry

     iteration # 10     ecut=    40.00 Ry     beta= 0.50
     Davidson diagonalization with overlap
     ethr =  2.29E-11,  avg # of iterations =  6.0

     negative rho (up, down):  4.998E-04 0.000E+00

     total cpu time spent up to now is     1293.8 secs

     total energy              =   -1463.13084787 Ry
     estimated scf accuracy    <       0.00000002 Ry

     iteration # 11     ecut=    40.00 Ry     beta= 0.50
     Davidson diagonalization with overlap
     ethr =  1.54E-11,  avg # of iterations =  2.0

     negative rho (up, down):  5.070E-04 0.000E+00

     total cpu time spent up to now is     1300.1 secs

     total energy              =   -1463.13084787 Ry
     estimated scf accuracy    <          4.4E-09 Ry

     iteration # 12     ecut=    40.00 Ry     beta= 0.50
     Davidson diagonalization with overlap
     ethr =  3.84E-12,  avg # of iterations =  6.0

     negative rho (up, down):  5.129E-04 0.000E+00

     total cpu time spent up to now is     1306.9 secs

     total energy              =   -1463.13084786 Ry
     estimated scf accuracy    <          3.6E-09 Ry

     iteration # 13     ecut=    40.00 Ry     beta= 0.50
     Davidson diagonalization with overlap
     ethr =  3.13E-12,  avg # of iterations =  1.0

     negative rho (up, down):  5.153E-04 0.000E+00

     total cpu time spent up to now is     1313.1 secs

     total energy              =   -1463.13084787 Ry
     estimated scf accuracy    <          1.7E-09 Ry

     iteration # 14     ecut=    40.00 Ry     beta= 0.50
     Davidson diagonalization with overlap
     ethr =  1.48E-12,  avg # of iterations =  2.0

     negative rho (up, down):  5.172E-04 0.000E+00

     total cpu time spent up to now is     1318.5 secs

     End of self-consistent calculation

          k = 0.0833 0.0833 0.0000 ( 48259 PWs)   bands (ev):

   -19.4954 -10.1794  -9.2182  -9.1643  -8.7350  -8.2157  -7.9179  -7.7764
    -7.3751  -7.2022  -7.0384  -6.7907  -6.6721  -6.4340  -6.2111  -6.1480
    -5.7999  -5.7350  -5.4917  -5.4421  -4.9799  -4.6435  -4.5946  -4.3763
    -4.2654  -4.2566  -3.9872  -3.8500  -3.7331  -3.4039  -3.3265  -3.3023
    -2.9573  -2.9281  -2.9049  -2.8447  -2.7357  -2.4663  -2.2559  -1.9985
    -1.9765  -1.9360  -1.5884  -1.5314  -1.1051  -1.0848  -0.8012  -0.7937
    -0.7231  -0.6594  -0.5785  -0.5717  -0.4902  -0.4552  -0.3221  -0.1844
    -0.0619  -0.0059   0.2192   0.2504   0.5985   0.8352   0.8797   1.0392
     1.0649   1.1529   1.1995   1.3453

     the Fermi energy is     0.0196 ev

!    total energy              =   -1463.13084786 Ry
     total all-electron energy =    -17633.117877 Ry
     estimated scf accuracy    <          2.5E-10 Ry
     smearing contrib. (-TS)   =       0.01692732 Ry
     internal energy E=F+TS    =   -1463.14777518 Ry

     The total energy is F=E-TS. E is the sum of the following terms:
     one-electron contribution =   -1694.72369415 Ry
     hartree contribution      =     876.28516627 Ry
     xc contribution           =     -98.65677170 Ry
     ewald contribution        =     711.87168401 Ry
     one-center paw contrib.   =   -1257.92415961 Ry

     convergence has been achieved in  14 iterations

     negative rho (up, down):  5.172E-04 0.000E+00

     Forces acting on atoms (cartesian axes, Ry/au):

     atom    1 type  1   force =     0.00205345   -0.00205345   -0.00740360
     atom    2 type  1   force =     0.00133441    0.00000000   -0.00646927
     atom    3 type  1   force =     0.00205345    0.00205345   -0.00740360
     atom    4 type  1   force =    -0.00205345   -0.00205345   -0.00740360
     atom    5 type  1   force =    -0.00133441    0.00000000   -0.00646927
     atom    6 type  1   force =    -0.00205345    0.00205345   -0.00740360
     atom    7 type  1   force =     0.00000000   -0.00133441   -0.00646927
     atom    8 type  1   force =     0.00000000    0.00000000   -0.00624543
     atom    9 type  1   force =     0.00000000    0.00133441   -0.00646927
     atom   10 type  1   force =     0.00000000    0.00187742    0.00939181
     atom   11 type  1   force =     0.00000000   -0.00187742    0.00939181
     atom   12 type  1   force =     0.00000000    0.00000000    0.00659613
     atom   13 type  1   force =    -0.00421820   -0.00421820    0.00488698
     atom   14 type  1   force =    -0.00421820    0.00421820    0.00488698
     atom   15 type  1   force =     0.00187742    0.00000000    0.00939181
     atom   16 type  1   force =     0.00421820   -0.00421820    0.00488698
     atom   17 type  1   force =     0.00421820    0.00421820    0.00488698
     atom   18 type  1   force =    -0.00187742    0.00000000    0.00939181
     atom   19 type  1   force =     0.00007824   -0.00007824   -0.00007345
     atom   20 type  1   force =    -0.00021076    0.00000000   -0.00004066
     atom   21 type  1   force =     0.00007824    0.00007824   -0.00007345
     atom   22 type  1   force =    -0.00007824   -0.00007824   -0.00007345
     atom   23 type  1   force =     0.00021076    0.00000000   -0.00004066
     atom   24 type  1   force =    -0.00007824    0.00007824   -0.00007345
     atom   25 type  1   force =     0.00000000    0.00021076   -0.00004066
     atom   26 type  1   force =     0.00000000    0.00000000   -0.00072321
     atom   27 type  1   force =     0.00000000   -0.00021076   -0.00004066
     atom   28 type  1   force =    -0.00000000    0.00018769   -0.00034088
     atom   29 type  1   force =     0.00000000   -0.00018769   -0.00034088
     atom   30 type  1   force =     0.00000000    0.00000000    0.00050753
     atom   31 type  1   force =     0.00007908    0.00007908   -0.00018917
     atom   32 type  1   force =     0.00007908   -0.00007908   -0.00018917
     atom   33 type  1   force =     0.00018769    0.00000000   -0.00034088
     atom   34 type  1   force =    -0.00007908    0.00007908   -0.00018917
     atom   35 type  1   force =    -0.00007908   -0.00007908   -0.00018917
     atom   36 type  1   force =    -0.00018769    0.00000000   -0.00034088
     atom   37 type  2   force =     0.00000000    0.00000000    0.00081792

     Total force =     0.001582     Total SCF correction =     0.000015
     Energy error            =      9.9E-05 Ry
     Gradient error          =      8.2E-04 Ry/Bohr

     bfgs converged in  12 scf cycles and  11 bfgs steps
     (criteria: energy <  1.0E-04 Ry, force <  1.0E-03 Ry/Bohr)

     End of BFGS Geometry Optimization

     Final energy             =   -1463.1308478602 Ry

     File ./tmp/Al.bfgs deleted, as requested
Begin final coordinates

ATOMIC_POSITIONS (alat)
Al               0.0000000000        0.0000000000        0.0000000000    0   0   0
Al               0.0000000000        0.9999999970        0.0000000000    0   0   0
Al               0.0000000000        1.9999999939        0.0000000000    0   0   0
Al               0.9999999970        0.0000000000        0.0000000000    0   0   0
Al               0.9999999970        0.9999999970        0.0000000000    0   0   0
Al               0.9999999970        1.9999999939        0.0000000000    0   0   0
Al               1.9999999939        0.0000000000        0.0000000000    0   0   0
Al               1.9999999939        0.9999999970        0.0000000000    0   0   0
Al               1.9999999939        1.9999999939        0.0000000000    0   0   0
Al               0.4999999984        0.4999999984        0.7071067668    0   0   0
Al               0.4999999984        1.4999999956        0.7071067668    0   0   0
Al               0.4999999984        2.4999999924        0.7071067668    0   0   0
Al               1.4999999956        0.4999999984        0.7071067668    0   0   0
Al               1.4999999956        1.4999999956        0.7071067668    0   0   0
Al               1.4999999956        2.4999999924        0.7071067668    0   0   0
Al               2.4999999924        0.4999999984        0.7071067668    0   0   0
Al               2.4999999924        1.4999999956        0.7071067668    0   0   0
Al               2.4999999924        2.4999999924        0.7071067668    0   0   0
Al               0.0041283128       -0.0041283128        1.3939807583
Al              -0.0054059639        0.9999999970        1.4241122841
Al               0.0041283128        2.0041283068        1.3939771626
Al               0.9958716841       -0.0041283128        1.3939771626
Al               1.0054059610        0.9999999970        1.4241113254
Al               0.9958716841        2.0041283068        1.3939762039
Al               1.9999999939        0.0054059639        1.4241122841
Al               1.9999999939        0.9999999970        1.3580925796
Al               1.9999999939        1.9945940300        1.4241113254
Al               0.4999999984        0.4968500137        2.1686027498
Al               0.4999999984        1.5031499803        2.1686015618
Al               0.4999999984        2.4999999924        2.1425800750
Al               1.5081949614        0.5081949644        2.1501227319
Al               1.5081949614        1.4918050296        2.1501249894
Al               1.4968500107        2.4999999924        2.1686015618
Al               2.4918050266        0.5081949644        2.1501239199
Al               2.4918050266        1.4918050296        2.1501227319
Al               2.5031499773        2.4999999924        2.1686027498
O                1.9999999986        0.9999999994        2.3766718229    0   0   1
End final coordinates



     Writing all to output data dir ./tmp/Al.save/ :
     XML data file, charge density, pseudopotentials, collected wavefunctions

     init_run     :      4.15s CPU      4.69s WALL (       1 calls)
     electrons    :   1098.33s CPU   1233.06s WALL (      12 calls)
     update_pot   :     13.15s CPU     13.49s WALL (      11 calls)
     forces       :     38.84s CPU     44.46s WALL (      12 calls)

     Called by init_run:
     wfcinit      :      1.31s CPU      1.40s WALL (       1 calls)
     potinit      :      1.18s CPU      1.24s WALL (       1 calls)
     hinit0       :      0.22s CPU      0.25s WALL (       1 calls)

     Called by electrons:
     c_bands      :    348.06s CPU    362.14s WALL (     173 calls)
     sum_band     :    255.15s CPU    312.55s WALL (     173 calls)
     v_of_rho     :     44.77s CPU     48.46s WALL (     181 calls)
     newd         :    181.18s CPU    233.05s WALL (     181 calls)
     PAW_pot      :    160.98s CPU    161.01s WALL (     192 calls)
     mix_rho      :    137.57s CPU    147.05s WALL (     173 calls)

     Called by c_bands:
     init_us_2    :     12.28s CPU     12.59s WALL (     358 calls)
     cegterg      :    312.11s CPU    323.56s WALL (     173 calls)

     Called by *egterg:
     cdiaghg      :      4.04s CPU      4.06s WALL (     850 calls)
     h_psi        :    217.10s CPU    225.65s WALL (     866 calls)
     s_psi        :     44.45s CPU     44.65s WALL (     866 calls)
     g_psi        :      0.64s CPU      0.66s WALL (     692 calls)

     Called by h_psi:
     h_psi:calbec :     43.48s CPU     43.93s WALL (     866 calls)
     vloc_psi     :    128.19s CPU    135.22s WALL (     866 calls)
     add_vuspsi   :     44.48s CPU     44.53s WALL (     866 calls)

     General routines
     calbec       :     63.22s CPU     63.84s WALL (    1098 calls)
     fft          :     28.84s CPU     32.61s WALL (    2476 calls)
     ffts         :     57.67s CPU     63.04s WALL (   19665 calls)
     fftw         :    114.79s CPU    120.88s WALL (   74172 calls)
     interpolate  :      2.98s CPU      3.28s WALL (     181 calls)

     Parallel routines

     PWSCF        :  19m37.14s CPU  22m 2.64s WALL


   This run was terminated on:  23:38: 6  19May2025            

=------------------------------------------------------------------------------=
   JOB DONE.
=------------------------------------------------------------------------------=
